
     Program PWSCF v.6.7MaX starts on 22Jan2024 at 10:37:10 

     This program is part of the open-source Quantum ESPRESSO suite
     for quantum simulation of materials; please cite
         "P. Giannozzi et al., J. Phys.:Condens. Matter 21 395502 (2009);
         "P. Giannozzi et al., J. Phys.:Condens. Matter 29 465901 (2017);
          URL http://www.quantum-espresso.org", 
     in publications or presentations arising from this work. More details at
     http://www.quantum-espresso.org/quote

     Parallel version (MPI), running on    32 processors

     MPI processes distributed on     1 nodes
     R & G space division:  proc/nbgrp/npool/nimage =      32
     Waiting for input...
     Reading input from standard input
Warning: card &CELL ignored
Warning: card  CELL_DYNAMICS = 'BFGS', ignored
Warning: card  PRESS = 0.0, ignored
Warning: card  PRESS_CONV_THR = 1D-3, ignored
Warning: card  CELL_DOFREE='2DXY' ignored
Warning: card / ignored

     Current dimensions of program PWSCF are:
     Max number of different atomic species (ntypx) = 10
     Max number of k-points (npk) =  40000
     Max angular momentum in pseudopotentials (lmaxx) =  3
     Message from routine read_pp_mesh:
     mesh size missing, using the one in header

     Subspace diagonalization in iterative solution of the eigenvalue problem:
     a serial algorithm will be used

 
     Parallelization info
     --------------------
     sticks:   dense  smooth     PW     G-vecs:    dense   smooth      PW
     Min           3       3      1                  427      427      71
     Max           4       4      2                  498      498     128
     Sum         121     121     43                15087    15087    3127
 


     bravais-lattice index     =            4
     lattice parameter (alat)  =       3.0000  a.u.
     unit-cell volume          =     315.6663 (a.u.)^3
     number of atoms/cell      =            2
     number of atomic types    =            1
     number of electrons       =         8.00
     number of Kohn-Sham states=            8
     kinetic-energy cutoff     =      50.0000  Ry
     charge density cutoff     =     200.0000  Ry
     scf convergence threshold =      1.0E-08
     mixing beta               =       0.7000
     number of iterations used =            8  plain     mixing
     Exchange-correlation= PBE
                           (   1   4   3   4   0   0   0)

     celldm(1)=   3.000000  celldm(2)=   0.000000  celldm(3)=  13.500000
     celldm(4)=   0.000000  celldm(5)=   0.000000  celldm(6)=   0.000000

     crystal axes: (cart. coord. in units of alat)
               a(1) = (   1.000000   0.000000   0.000000 )  
               a(2) = (  -0.500000   0.866025   0.000000 )  
               a(3) = (   0.000000   0.000000  13.500000 )  

     reciprocal axes: (cart. coord. in units 2 pi/alat)
               b(1) = (  1.000000  0.577350  0.000000 )  
               b(2) = (  0.000000  1.154701  0.000000 )  
               b(3) = (  0.000000  0.000000  0.074074 )  


     PseudoPot. # 1 for C  read from file:
     /home/yhkim/qe-6.7/pseudo/ONCV1/1.2/C_ONCV_PBE-1.2.upf
     MD5 check sum: 1a5f83a7b1f58d24996abe00ed223ac6
     Pseudo is Norm-conserving, Zval =  4.0
     Generated using ONCVPSP code by D. R. Hamann
     Using radial grid of  602 points,  4 beta functions with: 
                l(1) =   0
                l(2) =   0
                l(3) =   1
                l(4) =   1

     atomic species   valence    mass     pseudopotential
        C              4.00    12.01070     C ( 1.00)

     24 Sym. Ops., with inversion, found



   Cartesian axes

     site n.     atom                  positions (alat units)
         1           C   tau(   1) = (  -0.0000000   0.5773503   6.7500000  )
         2           C   tau(   2) = (   0.5000000   0.2886751   6.7500000  )

     number of k points=    27  Methfessel-Paxton smearing, width (Ry)=  0.0100
                       cart. coord. in units 2pi/alat
        k(    1) = (   0.0000000   0.0000000   0.0000000), wk =   0.0088889
        k(    2) = (   0.0000000   0.0769800   0.0000000), wk =   0.0533333
        k(    3) = (   0.0000000   0.1539601   0.0000000), wk =   0.0533333
        k(    4) = (   0.0000000   0.2309401   0.0000000), wk =   0.0533333
        k(    5) = (   0.0000000   0.3079201   0.0000000), wk =   0.0533333
        k(    6) = (   0.0000000   0.3849002   0.0000000), wk =   0.0533333
        k(    7) = (   0.0000000   0.4618802   0.0000000), wk =   0.0533333
        k(    8) = (   0.0000000   0.5388603   0.0000000), wk =   0.0533333
        k(    9) = (   0.0666667   0.1154701   0.0000000), wk =   0.0533333
        k(   10) = (   0.0666667   0.1924501   0.0000000), wk =   0.1066667
        k(   11) = (   0.0666667   0.2694301   0.0000000), wk =   0.1066667
        k(   12) = (   0.0666667   0.3464102   0.0000000), wk =   0.1066667
        k(   13) = (   0.0666667   0.4233902   0.0000000), wk =   0.1066667
        k(   14) = (   0.0666667   0.5003702   0.0000000), wk =   0.1066667
        k(   15) = (   0.0666667   0.5773503   0.0000000), wk =   0.0533333
        k(   16) = (   0.1333333   0.2309401   0.0000000), wk =   0.0533333
        k(   17) = (   0.1333333   0.3079201   0.0000000), wk =   0.1066667
        k(   18) = (   0.1333333   0.3849002   0.0000000), wk =   0.1066667
        k(   19) = (   0.1333333   0.4618802   0.0000000), wk =   0.1066667
        k(   20) = (   0.1333333   0.5388603   0.0000000), wk =   0.1066667
        k(   21) = (   0.2000000   0.3464102   0.0000000), wk =   0.0533333
        k(   22) = (   0.2000000   0.4233902   0.0000000), wk =   0.1066667
        k(   23) = (   0.2000000   0.5003702   0.0000000), wk =   0.1066667
        k(   24) = (   0.2000000   0.5773503   0.0000000), wk =   0.0533333
        k(   25) = (   0.2666667   0.4618802   0.0000000), wk =   0.0533333
        k(   26) = (   0.2666667   0.5388603   0.0000000), wk =   0.1066667
        k(   27) = (   0.3333333   0.5773503   0.0000000), wk =   0.0177778

     Dense  grid:    15087 G-vectors     FFT dimensions: (  15,  15, 192)

     Estimated max dynamical RAM per process >       0.87 MB

     Estimated total dynamical RAM >      27.88 MB
 ----2D----2D----2D----2D----2D----2D----2D----2D----2D----2D----2D----2D
  The code is running with the 2D cutoff
  Please refer to:
  Sohier, T., Calandra, M., & Mauri, F. (2017), 
  Density functional perturbation theory for gated two-dimensional heterostructu
 res:
  Theoretical developments and application to flexural phonons in graphene.
  Physical Review B, 96(7), 75448. https://doi.org/10.1103/PhysRevB.96.075448
 ----2D----2D----2D----2D----2D----2D----2D----2D----2D----2D----2D----2D

     Initial potential from superposition of free atoms

     starting charge    7.98607, renormalised to    8.00000

     negative rho (up, down):  6.983E-05 0.000E+00
     Starting wfcs are random

     total cpu time spent up to now is        0.2 secs

     Self-consistent Calculation

     iteration #  1     ecut=    50.00 Ry     beta= 0.70
     Davidson diagonalization with overlap
     ethr =  1.00E-02,  avg # of iterations = 14.1

     negative rho (up, down):  8.681E-07 0.000E+00

     total cpu time spent up to now is        0.6 secs

     total energy              =     -18.83718277 Ry
     estimated scf accuracy    <       2.34008374 Ry

     iteration #  2     ecut=    50.00 Ry     beta= 0.70
     Davidson diagonalization with overlap
     ethr =  1.00E-02,  avg # of iterations =  4.6

     total cpu time spent up to now is        0.7 secs

     total energy              =     -19.13693420 Ry
     estimated scf accuracy    <       0.23617476 Ry

     iteration #  3     ecut=    50.00 Ry     beta= 0.70
     Davidson diagonalization with overlap
     ethr =  2.95E-03,  avg # of iterations =  3.2

     total cpu time spent up to now is        0.8 secs

     total energy              =     -19.25928670 Ry
     estimated scf accuracy    <       0.10761612 Ry

     iteration #  4     ecut=    50.00 Ry     beta= 0.70
     Davidson diagonalization with overlap
     ethr =  1.35E-03,  avg # of iterations =  2.1

     total cpu time spent up to now is        0.9 secs

     total energy              =     -19.27871400 Ry
     estimated scf accuracy    <       0.02086402 Ry

     iteration #  5     ecut=    50.00 Ry     beta= 0.70
     Davidson diagonalization with overlap
     ethr =  2.61E-04,  avg # of iterations =  4.0

     negative rho (up, down):  1.789E-04 0.000E+00

     total cpu time spent up to now is        1.0 secs

     total energy              =     -19.27431110 Ry
     estimated scf accuracy    <       0.00702122 Ry

     iteration #  6     ecut=    50.00 Ry     beta= 0.70
     Davidson diagonalization with overlap
     ethr =  8.78E-05,  avg # of iterations =  6.5

     negative rho (up, down):  2.219E-03 0.000E+00

     total cpu time spent up to now is        1.2 secs

     total energy              =     -19.28267683 Ry
     estimated scf accuracy    <       0.00967751 Ry

     iteration #  7     ecut=    50.00 Ry     beta= 0.70
     Davidson diagonalization with overlap
     ethr =  8.78E-05,  avg # of iterations =  5.1

     negative rho (up, down):  1.124E-04 0.000E+00

     total cpu time spent up to now is        1.3 secs

     total energy              =     -19.28011473 Ry
     estimated scf accuracy    <       0.03567500 Ry

     iteration #  8     ecut=    50.00 Ry     beta= 0.70
     Davidson diagonalization with overlap
     ethr =  8.78E-05,  avg # of iterations =  3.8

     total cpu time spent up to now is        1.4 secs

     total energy              =     -19.27688293 Ry
     estimated scf accuracy    <       0.01817786 Ry

     iteration #  9     ecut=    50.00 Ry     beta= 0.70
     Davidson diagonalization with overlap
     ethr =  8.78E-05,  avg # of iterations =  3.9

     total cpu time spent up to now is        1.5 secs

     total energy              =     -19.27749531 Ry
     estimated scf accuracy    <       0.00402322 Ry

     iteration # 10     ecut=    50.00 Ry     beta= 0.70
     Davidson diagonalization with overlap
     ethr =  5.03E-05,  avg # of iterations =  1.0

     total cpu time spent up to now is        1.6 secs

     total energy              =     -19.27579363 Ry
     estimated scf accuracy    <       0.00418903 Ry

     iteration # 11     ecut=    50.00 Ry     beta= 0.70
     Davidson diagonalization with overlap
     ethr =  5.03E-05,  avg # of iterations =  3.1

     total cpu time spent up to now is        1.7 secs

     total energy              =     -19.27691698 Ry
     estimated scf accuracy    <       0.00035016 Ry

     iteration # 12     ecut=    50.00 Ry     beta= 0.70
     Davidson diagonalization with overlap
     ethr =  4.38E-06,  avg # of iterations =  4.8

     negative rho (up, down):  3.076E-03 0.000E+00

     total cpu time spent up to now is        1.8 secs

     total energy              =     -19.27694166 Ry
     estimated scf accuracy    <       0.00032183 Ry

     iteration # 13     ecut=    50.00 Ry     beta= 0.70
     Davidson diagonalization with overlap
     ethr =  4.02E-06,  avg # of iterations =  8.6

     negative rho (up, down):  3.286E-03 0.000E+00

     total cpu time spent up to now is        2.0 secs

     total energy              =     -19.27702942 Ry
     estimated scf accuracy    <       0.00028402 Ry

     iteration # 14     ecut=    50.00 Ry     beta= 0.70
     Davidson diagonalization with overlap
     ethr =  3.55E-06,  avg # of iterations =  1.2

     negative rho (up, down):  2.044E-03 0.000E+00

     total cpu time spent up to now is        2.1 secs

     total energy              =     -19.27693804 Ry
     estimated scf accuracy    <       0.00018046 Ry

     iteration # 15     ecut=    50.00 Ry     beta= 0.70
     Davidson diagonalization with overlap
     ethr =  2.26E-06,  avg # of iterations =  5.2

     negative rho (up, down):  1.858E-03 0.000E+00

     total cpu time spent up to now is        2.2 secs

     total energy              =     -19.27692626 Ry
     estimated scf accuracy    <       0.00013732 Ry

     iteration # 16     ecut=    50.00 Ry     beta= 0.70
     Davidson diagonalization with overlap
     ethr =  1.72E-06,  avg # of iterations =  1.8

     total cpu time spent up to now is        2.3 secs

     total energy              =     -19.27683343 Ry
     estimated scf accuracy    <       0.00010660 Ry

     iteration # 17     ecut=    50.00 Ry     beta= 0.70
     Davidson diagonalization with overlap
     ethr =  1.33E-06,  avg # of iterations =  8.9

     total cpu time spent up to now is        2.4 secs

     total energy              =     -19.27681160 Ry
     estimated scf accuracy    <       0.00015533 Ry

     iteration # 18     ecut=    50.00 Ry     beta= 0.70
     Davidson diagonalization with overlap
     c_bands:  1 eigenvalues not converged
     ethr =  1.33E-06,  avg # of iterations =  2.9

     total cpu time spent up to now is        2.5 secs

     total energy              =     -19.27684620 Ry
     estimated scf accuracy    <       0.00000359 Ry

     iteration # 19     ecut=    50.00 Ry     beta= 0.70
     Davidson diagonalization with overlap
     ethr =  4.48E-08,  avg # of iterations =  2.5

     total cpu time spent up to now is        2.6 secs

     total energy              =     -19.27682944 Ry
     estimated scf accuracy    <       0.00021192 Ry

     iteration # 20     ecut=    50.00 Ry     beta= 0.70
     Davidson diagonalization with overlap
     ethr =  4.48E-08,  avg # of iterations =  2.6

     total cpu time spent up to now is        2.7 secs

     total energy              =     -19.27682367 Ry
     estimated scf accuracy    <       0.00005373 Ry

     iteration # 21     ecut=    50.00 Ry     beta= 0.70
     Davidson diagonalization with overlap
     ethr =  4.48E-08,  avg # of iterations =  2.0

     total cpu time spent up to now is        2.8 secs

     total energy              =     -19.27682777 Ry
     estimated scf accuracy    <       0.00000262 Ry

     iteration # 22     ecut=    50.00 Ry     beta= 0.70
     Davidson diagonalization with overlap
     ethr =  3.28E-08,  avg # of iterations =  1.0

     total cpu time spent up to now is        2.9 secs

     total energy              =     -19.27682725 Ry
     estimated scf accuracy    <       0.00000163 Ry

     iteration # 23     ecut=    50.00 Ry     beta= 0.70
     Davidson diagonalization with overlap
     ethr =  2.04E-08,  avg # of iterations =  1.1

     total cpu time spent up to now is        3.0 secs

     total energy              =     -19.27682754 Ry
     estimated scf accuracy    <       0.00000013 Ry

     iteration # 24     ecut=    50.00 Ry     beta= 0.70
     Davidson diagonalization with overlap
     ethr =  1.65E-09,  avg # of iterations =  1.0

     total cpu time spent up to now is        3.1 secs

     total energy              =     -19.27682755 Ry
     estimated scf accuracy    <       0.00000001 Ry

     iteration # 25     ecut=    50.00 Ry     beta= 0.70
     Davidson diagonalization with overlap
     ethr =  1.63E-10,  avg # of iterations =  1.1

     total cpu time spent up to now is        3.2 secs

     End of self-consistent calculation

          k = 0.0000 0.0000 0.0000 (  1909 PWs)   bands (ev):

   -34.2713 -24.0974  -3.6329  -2.3980  -0.2471   0.2037   1.6089   2.2440

          k = 0.0000 0.0770 0.0000 (  1907 PWs)   bands (ev):

   -34.0973 -23.7626  -3.3430  -2.6120  -2.0464   0.0994   0.5565   1.9521

          k = 0.0000 0.1540 0.0000 (  1924 PWs)   bands (ev):

   -33.5870 -22.7540  -5.1430  -4.5448  -2.2241  -0.9913   1.1472   1.6148

          k = 0.0000 0.2309 0.0000 (  1932 PWs)   bands (ev):

   -32.7731 -21.0824  -8.2430  -6.8364  -0.5339   0.7653   2.8959   3.3778

          k = 0.0000 0.3079 0.0000 (  1914 PWs)   bands (ev):

   -31.7124 -18.7650 -11.4137  -8.9441   1.8382   3.2168   5.3434   5.8417

          k = 0.0000 0.3849 0.0000 (  1890 PWs)   bands (ev):

   -30.5033 -15.8424 -14.2949 -10.6399   4.8782   6.2994   8.4876   8.9094

          k = 0.0000 0.4619 0.0000 (  1876 PWs)   bands (ev):

   -29.3284 -16.6040 -12.4449 -11.8089   4.3135   8.5746  10.3578  12.3261

          k = 0.0000 0.5389 0.0000 (  1868 PWs)   bands (ev):

   -28.5332 -17.9719 -12.4065  -9.1935  -0.0796  12.9048  14.8704  16.8333

          k = 0.0667 0.1155 0.0000 (  1927 PWs)   bands (ev):

   -33.7557 -23.0902  -4.2624  -4.1035  -2.5436  -1.3429   0.7982   1.2621

          k = 0.0667 0.1925 0.0000 (  1923 PWs)   bands (ev):

   -33.0940 -21.7487  -6.9319  -6.2248  -1.2034   0.0632   2.1980   2.6729

          k = 0.0667 0.2694 0.0000 (  1921 PWs)   bands (ev):

   -32.1560 -19.7537 -10.0168  -8.3647   0.8307   2.1684   4.2969   4.7871

          k = 0.0667 0.3464 0.0000 (  1889 PWs)   bands (ev):

   -31.0190 -17.1270 -12.9894 -10.2065   3.5382   4.9576   7.0934   7.5943

          k = 0.0667 0.4234 0.0000 (  1881 PWs)   bands (ev):

   -29.8159 -15.5523 -13.9412 -11.6071   6.9074   6.9775   8.7780  10.5853

          k = 0.0667 0.5004 0.0000 (  1876 PWs)   bands (ev):

   -28.7975 -17.3956 -12.4739 -10.4547   2.0035  10.9251  12.7658  14.7692

          k = 0.0667 0.5774 0.0000 (  1876 PWs)   bands (ev):

   -28.3712 -18.0985 -12.7661  -8.2642  -0.7656  15.2755  15.9045  17.5350

          k = 0.1333 0.2309 0.0000 (  1923 PWs)   bands (ev):

   -32.3094 -20.0837  -9.3002  -8.3738   0.5008   1.8185   3.9495   4.4353

          k = 0.1333 0.3079 0.0000 (  1887 PWs)   bands (ev):

   -31.2941 -17.7751 -11.9661 -10.2846   2.8778   4.2689   6.3991   6.8989

          k = 0.1333 0.3849 0.0000 (  1866 PWs)   bands (ev):

   -30.1526 -14.8627 -14.4958 -11.8276   5.9189   7.3558   9.5447   9.8869

          k = 0.1333 0.4619 0.0000 (  1866 PWs)   bands (ev):

   -29.0642 -16.5457 -12.9016 -11.4695   4.7585   9.6121  11.3302  13.3836

          k = 0.1333 0.5389 0.0000 (  1864 PWs)   bands (ev):

   -28.3405 -17.7506 -13.4512  -8.1924   0.4246  13.9361  15.7940  17.9017

          k = 0.2000 0.3464 0.0000 (  1893 PWs)   bands (ev):

   -30.2733 -15.1753 -13.9495 -12.1013   5.5916   7.0558   9.1985   9.7072

          k = 0.2000 0.4234 0.0000 (  1874 PWs)   bands (ev):

   -29.2285 -15.7602 -13.4636 -12.0146   7.2392   8.9592  10.5234  12.6915

          k = 0.2000 0.5004 0.0000 (  1851 PWs)   bands (ev):

   -28.3839 -17.0974 -14.2899  -8.5166   2.6403  12.9605  14.4236  16.8768

          k = 0.2000 0.5774 0.0000 (  1842 PWs)   bands (ev):

   -28.0414 -17.6047 -14.5680  -6.2139  -0.0741  16.3486  17.4224  17.7025

          k = 0.2667 0.4619 0.0000 (  1857 PWs)   bands (ev):

   -28.4110 -16.6500 -14.7982  -8.6802   3.9484  12.6340  13.5930  16.0243

          k = 0.2667 0.5389 0.0000 (  1851 PWs)   bands (ev):

   -27.9111 -17.1031 -15.5704  -5.2786   0.4970  13.4518  16.8988  19.4052

          k = 0.3333 0.5774 0.0000 (  1860 PWs)   bands (ev):

   -27.7483 -16.5606 -16.5606  -2.1263  -2.1263  12.1525  21.2774  21.2774

     the Fermi energy is    -2.5298 ev

!    total energy              =     -19.27682755 Ry
     estimated scf accuracy    <          1.7E-09 Ry
     smearing contrib. (-TS)   =      -0.00007825 Ry
     internal energy E=F+TS    =     -19.27674930 Ry

     The total energy is F=E-TS. E is the sum of the following terms:
     one-electron contribution =    -943.84897700 Ry
     hartree contribution      =     472.97597785 Ry
     xc contribution           =      -9.38444854 Ry
     ewald contribution        =     460.98069839 Ry

     convergence has been achieved in  25 iterations

     Forces acting on atoms (cartesian axes, Ry/au):

     atom    1 type  1   force =     0.00000000    0.00000000    0.00000000
     atom    2 type  1   force =     0.00000000    0.00000000    0.00000000

     Total force =     0.000000     Total SCF correction =     0.000000


     Computing stress (Cartesian axis) and pressure

          total   stress  (Ry/bohr**3)                   (kbar)     P=     3058.86
   0.03145885   0.00000000  -0.00000000         4627.76        0.00       -0.00
   0.00000000   0.03145885   0.00000000            0.00     4627.76        0.00
   0.00000000   0.00000000  -0.00053658            0.00        0.00      -78.93


     Writing output data file ./work/LiC300.save/
 
     init_run     :      0.13s CPU      0.14s WALL (       1 calls)
     electrons    :      2.69s CPU      2.98s WALL (       1 calls)
     forces       :      0.00s CPU      0.01s WALL (       1 calls)
     stress       :      0.01s CPU      0.01s WALL (       1 calls)

     Called by init_run:
     wfcinit      :      0.04s CPU      0.05s WALL (       1 calls)
     potinit      :      0.08s CPU      0.08s WALL (       1 calls)
     hinit0       :      0.00s CPU      0.00s WALL (       1 calls)

     Called by electrons:
     c_bands      :      2.32s CPU      2.55s WALL (      25 calls)
     sum_band     :      0.34s CPU      0.36s WALL (      25 calls)
     v_of_rho     :      0.03s CPU      0.03s WALL (      26 calls)
     mix_rho      :      0.01s CPU      0.01s WALL (      25 calls)

     Called by c_bands:
     init_us_2    :      0.02s CPU      0.02s WALL (    1431 calls)
     cegterg      :      2.26s CPU      2.48s WALL (     675 calls)

     Called by *egterg:
     cdiaghg      :      0.27s CPU      0.29s WALL (    3272 calls)
     h_psi        :      1.85s CPU      2.03s WALL (    3299 calls)
     g_psi        :      0.01s CPU      0.01s WALL (    2597 calls)

     Called by h_psi:
     h_psi:calbec :      0.06s CPU      0.06s WALL (    3299 calls)
     vloc_psi     :      1.74s CPU      1.92s WALL (    3299 calls)
     add_vuspsi   :      0.02s CPU      0.03s WALL (    3299 calls)

     General routines
     calbec       :      0.05s CPU      0.06s WALL (    3434 calls)
     fft          :      0.03s CPU      0.03s WALL (     267 calls)
     ffts         :      0.00s CPU      0.00s WALL (      25 calls)
     fftw         :      1.95s CPU      2.15s WALL (   37324 calls)
 
     Parallel routines
     fft_scatt_xy :      0.10s CPU      0.11s WALL (   37616 calls)
     fft_scatt_yz :      0.90s CPU      0.99s WALL (   37616 calls)
 
     PWSCF        :      2.87s CPU      3.33s WALL

 
   This run was terminated on:  10:37:14  22Jan2024            

=------------------------------------------------------------------------------=
   JOB DONE.
=------------------------------------------------------------------------------=
