
     Program PWSCF v.6.7MaX starts on 22Jan2024 at 10:37:33 

     This program is part of the open-source Quantum ESPRESSO suite
     for quantum simulation of materials; please cite
         "P. Giannozzi et al., J. Phys.:Condens. Matter 21 395502 (2009);
         "P. Giannozzi et al., J. Phys.:Condens. Matter 29 465901 (2017);
          URL http://www.quantum-espresso.org", 
     in publications or presentations arising from this work. More details at
     http://www.quantum-espresso.org/quote

     Parallel version (MPI), running on    32 processors

     MPI processes distributed on     1 nodes
     R & G space division:  proc/nbgrp/npool/nimage =      32
     Waiting for input...
     Reading input from standard input
Warning: card &CELL ignored
Warning: card  CELL_DYNAMICS = 'BFGS', ignored
Warning: card  PRESS = 0.0, ignored
Warning: card  PRESS_CONV_THR = 1D-3, ignored
Warning: card  CELL_DOFREE='2DXY' ignored
Warning: card / ignored

     Current dimensions of program PWSCF are:
     Max number of different atomic species (ntypx) = 10
     Max number of k-points (npk) =  40000
     Max angular momentum in pseudopotentials (lmaxx) =  3
     Message from routine read_pp_mesh:
     mesh size missing, using the one in header

     Subspace diagonalization in iterative solution of the eigenvalue problem:
     a serial algorithm will be used

 
     Parallelization info
     --------------------
     sticks:   dense  smooth     PW     G-vecs:    dense   smooth      PW
     Min           5       5      2                  772      772     139
     Max           7       7      5                  825      825     160
     Sum         211     211     73                25485    25485    4785
 


     bravais-lattice index     =            4
     lattice parameter (alat)  =       3.9000  a.u.
     unit-cell volume          =     533.4760 (a.u.)^3
     number of atoms/cell      =            2
     number of atomic types    =            1
     number of electrons       =         8.00
     number of Kohn-Sham states=            8
     kinetic-energy cutoff     =      50.0000  Ry
     charge density cutoff     =     200.0000  Ry
     scf convergence threshold =      1.0E-08
     mixing beta               =       0.7000
     number of iterations used =            8  plain     mixing
     Exchange-correlation= PBE
                           (   1   4   3   4   0   0   0)

     celldm(1)=   3.900000  celldm(2)=   0.000000  celldm(3)=  10.384615
     celldm(4)=   0.000000  celldm(5)=   0.000000  celldm(6)=   0.000000

     crystal axes: (cart. coord. in units of alat)
               a(1) = (   1.000000   0.000000   0.000000 )  
               a(2) = (  -0.500000   0.866025   0.000000 )  
               a(3) = (   0.000000   0.000000  10.384615 )  

     reciprocal axes: (cart. coord. in units 2 pi/alat)
               b(1) = (  1.000000  0.577350  0.000000 )  
               b(2) = (  0.000000  1.154701  0.000000 )  
               b(3) = (  0.000000  0.000000  0.096296 )  


     PseudoPot. # 1 for C  read from file:
     /home/yhkim/qe-6.7/pseudo/ONCV1/1.2/C_ONCV_PBE-1.2.upf
     MD5 check sum: 1a5f83a7b1f58d24996abe00ed223ac6
     Pseudo is Norm-conserving, Zval =  4.0
     Generated using ONCVPSP code by D. R. Hamann
     Using radial grid of  602 points,  4 beta functions with: 
                l(1) =   0
                l(2) =   0
                l(3) =   1
                l(4) =   1

     atomic species   valence    mass     pseudopotential
        C              4.00    12.01070     C ( 1.00)

     24 Sym. Ops., with inversion, found



   Cartesian axes

     site n.     atom                  positions (alat units)
         1           C   tau(   1) = (  -0.0000000   0.5773503   5.1923077  )
         2           C   tau(   2) = (   0.5000000   0.2886751   5.1923077  )

     number of k points=    27  Methfessel-Paxton smearing, width (Ry)=  0.0100
                       cart. coord. in units 2pi/alat
        k(    1) = (   0.0000000   0.0000000   0.0000000), wk =   0.0088889
        k(    2) = (   0.0000000   0.0769800   0.0000000), wk =   0.0533333
        k(    3) = (   0.0000000   0.1539601   0.0000000), wk =   0.0533333
        k(    4) = (   0.0000000   0.2309401   0.0000000), wk =   0.0533333
        k(    5) = (   0.0000000   0.3079201   0.0000000), wk =   0.0533333
        k(    6) = (   0.0000000   0.3849002   0.0000000), wk =   0.0533333
        k(    7) = (   0.0000000   0.4618802   0.0000000), wk =   0.0533333
        k(    8) = (   0.0000000   0.5388603   0.0000000), wk =   0.0533333
        k(    9) = (   0.0666667   0.1154701   0.0000000), wk =   0.0533333
        k(   10) = (   0.0666667   0.1924501   0.0000000), wk =   0.1066667
        k(   11) = (   0.0666667   0.2694301   0.0000000), wk =   0.1066667
        k(   12) = (   0.0666667   0.3464102   0.0000000), wk =   0.1066667
        k(   13) = (   0.0666667   0.4233902   0.0000000), wk =   0.1066667
        k(   14) = (   0.0666667   0.5003702   0.0000000), wk =   0.1066667
        k(   15) = (   0.0666667   0.5773503   0.0000000), wk =   0.0533333
        k(   16) = (   0.1333333   0.2309401   0.0000000), wk =   0.0533333
        k(   17) = (   0.1333333   0.3079201   0.0000000), wk =   0.1066667
        k(   18) = (   0.1333333   0.3849002   0.0000000), wk =   0.1066667
        k(   19) = (   0.1333333   0.4618802   0.0000000), wk =   0.1066667
        k(   20) = (   0.1333333   0.5388603   0.0000000), wk =   0.1066667
        k(   21) = (   0.2000000   0.3464102   0.0000000), wk =   0.0533333
        k(   22) = (   0.2000000   0.4233902   0.0000000), wk =   0.1066667
        k(   23) = (   0.2000000   0.5003702   0.0000000), wk =   0.1066667
        k(   24) = (   0.2000000   0.5773503   0.0000000), wk =   0.0533333
        k(   25) = (   0.2666667   0.4618802   0.0000000), wk =   0.0533333
        k(   26) = (   0.2666667   0.5388603   0.0000000), wk =   0.1066667
        k(   27) = (   0.3333333   0.5773503   0.0000000), wk =   0.0177778

     Dense  grid:    25485 G-vectors     FFT dimensions: (  18,  18, 192)

     Estimated max dynamical RAM per process >       1.21 MB

     Estimated total dynamical RAM >      38.61 MB
 ----2D----2D----2D----2D----2D----2D----2D----2D----2D----2D----2D----2D
  The code is running with the 2D cutoff
  Please refer to:
  Sohier, T., Calandra, M., & Mauri, F. (2017), 
  Density functional perturbation theory for gated two-dimensional heterostructu
 res:
  Theoretical developments and application to flexural phonons in graphene.
  Physical Review B, 96(7), 75448. https://doi.org/10.1103/PhysRevB.96.075448
 ----2D----2D----2D----2D----2D----2D----2D----2D----2D----2D----2D----2D

     Initial potential from superposition of free atoms

     starting charge    7.98607, renormalised to    8.00000

     negative rho (up, down):  9.930E-05 0.000E+00
     Starting wfcs are random

     total cpu time spent up to now is        0.2 secs

     Self-consistent Calculation

     iteration #  1     ecut=    50.00 Ry     beta= 0.70
     Davidson diagonalization with overlap
     ethr =  1.00E-02,  avg # of iterations = 12.3

     negative rho (up, down):  6.965E-07 0.000E+00

     total cpu time spent up to now is        0.7 secs

     total energy              =     -22.28166367 Ry
     estimated scf accuracy    <       0.63081256 Ry

     iteration #  2     ecut=    50.00 Ry     beta= 0.70
     Davidson diagonalization with overlap
     ethr =  7.89E-03,  avg # of iterations =  2.7

     negative rho (up, down):  1.977E-08 0.000E+00

     total cpu time spent up to now is        0.8 secs

     total energy              =     -22.37777982 Ry
     estimated scf accuracy    <       0.00322062 Ry

     iteration #  3     ecut=    50.00 Ry     beta= 0.70
     Davidson diagonalization with overlap
     ethr =  4.03E-05,  avg # of iterations =  9.3

     total cpu time spent up to now is        1.1 secs

     total energy              =     -22.37922834 Ry
     estimated scf accuracy    <       0.00020264 Ry

     iteration #  4     ecut=    50.00 Ry     beta= 0.70
     Davidson diagonalization with overlap
     ethr =  2.53E-06,  avg # of iterations =  6.1

     total cpu time spent up to now is        1.3 secs

     total energy              =     -22.37926714 Ry
     estimated scf accuracy    <       0.00000245 Ry

     iteration #  5     ecut=    50.00 Ry     beta= 0.70
     Davidson diagonalization with overlap
     ethr =  3.06E-08,  avg # of iterations =  3.6

     total cpu time spent up to now is        1.4 secs

     total energy              =     -22.37926978 Ry
     estimated scf accuracy    <       0.00000010 Ry

     iteration #  6     ecut=    50.00 Ry     beta= 0.70
     Davidson diagonalization with overlap
     ethr =  1.25E-09,  avg # of iterations =  2.3

     total cpu time spent up to now is        1.6 secs

     End of self-consistent calculation

          k = 0.0000 0.0000 0.0000 (  3241 PWs)   bands (ev):

   -26.4953 -14.2738  -4.7664  -1.0580  -0.2173   0.5411   0.8935   2.2139

          k = 0.0000 0.0770 0.0000 (  3253 PWs)   bands (ev):

   -26.3570 -14.0846  -5.3183  -5.1522  -0.8564  -0.0096   0.7487   1.1015

          k = 0.0000 0.1540 0.0000 (  3239 PWs)   bands (ev):

   -25.9428 -13.5154  -6.7988  -6.1038  -0.2490   0.6136   1.3720   1.7257

          k = 0.0000 0.2309 0.0000 (  3216 PWs)   bands (ev):

   -25.2564 -12.5756  -8.8354  -7.2602   0.7658   1.6505   2.4117   2.7646

          k = 0.0000 0.3079 0.0000 (  3184 PWs)   bands (ev):

   -24.3039 -11.2786 -11.1358  -8.3528   2.1859   3.0957   3.8677   4.2132

          k = 0.0000 0.3849 0.0000 (  3166 PWs)   bands (ev):

   -23.0958 -13.4724  -9.6655  -9.2487   4.0079   4.6619   5.2956   5.7395

          k = 0.0000 0.4619 0.0000 (  3156 PWs)   bands (ev):

   -21.6537 -15.7129  -9.8764  -7.8381   2.0315   6.2265   7.2835   8.0256

          k = 0.0000 0.5389 0.0000 (  3160 PWs)   bands (ev):

   -20.0852 -17.6932 -10.2012  -6.2148  -0.1792   8.8295   9.9552  10.7143

          k = 0.0667 0.1155 0.0000 (  3245 PWs)   bands (ev):

   -26.0807 -13.7048  -6.2401  -5.9133  -0.4514   0.4059   1.1642   1.5177

          k = 0.0667 0.1925 0.0000 (  3221 PWs)   bands (ev):

   -25.5304 -12.9500  -7.8675  -7.0848   0.3612   1.2361   1.9960   2.3493

          k = 0.0667 0.2694 0.0000 (  3197 PWs)   bands (ev):

   -24.7110 -11.8309  -9.9769  -8.2485   1.5799   2.4785   3.2442   3.5945

          k = 0.0667 0.3464 0.0000 (  3187 PWs)   bands (ev):

   -23.6305 -12.2715 -10.3709  -9.2516   3.2020   4.1143   4.9083   5.2284

          k = 0.0667 0.4234 0.0000 (  3170 PWs)   bands (ev):

   -22.3031 -14.5497 -10.0139  -8.6292   3.4453   5.2233   6.2547   6.9878

          k = 0.0667 0.5004 0.0000 (  3156 PWs)   bands (ev):

   -20.7690 -16.6829 -10.4817  -6.8028   0.7925   7.6362   8.7095   9.4810

          k = 0.0667 0.5774 0.0000 (  3152 PWs)   bands (ev):

   -19.5198 -18.1362 -10.6419  -5.7674  -0.5297  10.4214  10.4242  11.5549

          k = 0.1333 0.2309 0.0000 (  3189 PWs)   bands (ev):

   -24.8469 -12.0152  -9.1684  -8.6406   1.3792   2.2723   3.0368   3.3878

          k = 0.1333 0.3079 0.0000 (  3190 PWs)   bands (ev):

   -23.8994 -11.0704 -10.7275  -9.9006   2.8016   3.7175   4.4935   4.8370

          k = 0.1333 0.3849 0.0000 (  3184 PWs)   bands (ev):

   -22.6977 -13.2660 -10.7835  -9.1215   4.6240   4.7492   5.6351   6.3659

          k = 0.1333 0.4619 0.0000 (  3171 PWs)   bands (ev):

   -21.2646 -15.4351 -11.3822  -7.2951   2.0255   6.8402   7.8504   8.6529

          k = 0.1333 0.5389 0.0000 (  3156 PWs)   bands (ev):

   -19.6975 -17.3868 -11.6875  -5.6462  -0.1254   9.4377  10.4536  11.3525

          k = 0.2000 0.3464 0.0000 (  3194 PWs)   bands (ev):

   -22.8303 -12.0949 -11.8094  -9.2888   4.4247   5.3607   5.4211   6.1584

          k = 0.2000 0.4234 0.0000 (  3186 PWs)   bands (ev):

   -21.5189 -14.0556 -12.6499  -7.5650   2.9939   6.4417   7.3857   8.2382

          k = 0.2000 0.5004 0.0000 (  3169 PWs)   bands (ev):

   -20.0019 -16.0873 -13.0822  -5.7225   0.6610   8.8394   9.6501  10.7306

          k = 0.2000 0.5774 0.0000 (  3160 PWs)   bands (ev):

   -18.7284 -17.5400 -13.2284  -4.6065  -0.6306  10.8490  11.5244  11.6464

          k = 0.2667 0.4619 0.0000 (  3186 PWs)   bands (ev):

   -20.1163 -14.6909 -14.5200  -5.7741   1.0795   8.6392   9.2877  10.5268

          k = 0.2667 0.5389 0.0000 (  3174 PWs)   bands (ev):

   -18.5713 -16.4742 -14.8630  -4.0109  -0.7445   9.7435  11.1800  12.7291

          k = 0.3333 0.5774 0.0000 (  3192 PWs)   bands (ev):

   -17.4908 -16.3387 -16.3387  -2.3079  -2.3079   9.2773  13.6522  13.6522

     the Fermi energy is    -2.2655 ev

!    total energy              =     -22.37926981 Ry
     estimated scf accuracy    <          2.8E-09 Ry
     smearing contrib. (-TS)   =      -0.00003668 Ry
     internal energy E=F+TS    =     -22.37923313 Ry

     The total energy is F=E-TS. E is the sum of the following terms:
     one-electron contribution =    -554.99413055 Ry
     hartree contribution      =     278.61061275 Ry
     xc contribution           =      -7.86710161 Ry
     ewald contribution        =     261.87138628 Ry

     convergence has been achieved in   6 iterations

     Forces acting on atoms (cartesian axes, Ry/au):

     atom    1 type  1   force =    -0.00000000   -0.00000000    0.00000000
     atom    2 type  1   force =     0.00000000    0.00000000    0.00000000

     Total force =     0.000000     Total SCF correction =     0.000000


     Computing stress (Cartesian axis) and pressure

          total   stress  (Ry/bohr**3)                   (kbar)     P=      442.43
   0.00459796   0.00000000  -0.00000000          676.38        0.00       -0.00
   0.00000000   0.00459796   0.00000000            0.00      676.38        0.00
   0.00000000   0.00000000  -0.00017320            0.00        0.00      -25.48


     Writing output data file ./work/LiC390.save/
 
     init_run     :      0.13s CPU      0.15s WALL (       1 calls)
     electrons    :      1.30s CPU      1.40s WALL (       1 calls)
     forces       :      0.00s CPU      0.01s WALL (       1 calls)
     stress       :      0.02s CPU      0.02s WALL (       1 calls)

     Called by init_run:
     wfcinit      :      0.06s CPU      0.07s WALL (       1 calls)
     potinit      :      0.07s CPU      0.07s WALL (       1 calls)
     hinit0       :      0.00s CPU      0.01s WALL (       1 calls)

     Called by electrons:
     c_bands      :      1.17s CPU      1.25s WALL (       6 calls)
     sum_band     :      0.12s CPU      0.13s WALL (       6 calls)
     v_of_rho     :      0.01s CPU      0.01s WALL (       7 calls)
     mix_rho      :      0.00s CPU      0.00s WALL (       6 calls)

     Called by c_bands:
     init_us_2    :      0.01s CPU      0.01s WALL (     405 calls)
     cegterg      :      1.16s CPU      1.23s WALL (     162 calls)

     Called by *egterg:
     cdiaghg      :      0.10s CPU      0.11s WALL (    1144 calls)
     h_psi        :      1.02s CPU      1.09s WALL (    1171 calls)
     g_psi        :      0.00s CPU      0.00s WALL (     982 calls)

     Called by h_psi:
     h_psi:calbec :      0.03s CPU      0.03s WALL (    1171 calls)
     vloc_psi     :      0.98s CPU      1.04s WALL (    1171 calls)
     add_vuspsi   :      0.01s CPU      0.01s WALL (    1171 calls)

     General routines
     calbec       :      0.03s CPU      0.03s WALL (    1306 calls)
     fft          :      0.01s CPU      0.02s WALL (      77 calls)
     ffts         :      0.00s CPU      0.00s WALL (       6 calls)
     fftw         :      1.05s CPU      1.12s WALL (   12820 calls)
 
     Parallel routines
     fft_scatt_xy :      0.04s CPU      0.05s WALL (   12903 calls)
     fft_scatt_yz :      0.54s CPU      0.57s WALL (   12903 calls)
 
     PWSCF        :      1.50s CPU      1.80s WALL

 
   This run was terminated on:  10:37:35  22Jan2024            

=------------------------------------------------------------------------------=
   JOB DONE.
=------------------------------------------------------------------------------=
