
     Program PWSCF v.6.7MaX starts on 22Jan2024 at 10:37:14 

     This program is part of the open-source Quantum ESPRESSO suite
     for quantum simulation of materials; please cite
         "P. Giannozzi et al., J. Phys.:Condens. Matter 21 395502 (2009);
         "P. Giannozzi et al., J. Phys.:Condens. Matter 29 465901 (2017);
          URL http://www.quantum-espresso.org", 
     in publications or presentations arising from this work. More details at
     http://www.quantum-espresso.org/quote

     Parallel version (MPI), running on    32 processors

     MPI processes distributed on     1 nodes
     R & G space division:  proc/nbgrp/npool/nimage =      32
     Waiting for input...
     Reading input from standard input
Warning: card &CELL ignored
Warning: card  CELL_DYNAMICS = 'BFGS', ignored
Warning: card  PRESS = 0.0, ignored
Warning: card  PRESS_CONV_THR = 1D-3, ignored
Warning: card  CELL_DOFREE='2DXY' ignored
Warning: card / ignored

     Current dimensions of program PWSCF are:
     Max number of different atomic species (ntypx) = 10
     Max number of k-points (npk) =  40000
     Max angular momentum in pseudopotentials (lmaxx) =  3
     Message from routine read_pp_mesh:
     mesh size missing, using the one in header

     Subspace diagonalization in iterative solution of the eigenvalue problem:
     a serial algorithm will be used

 
     Parallelization info
     --------------------
     sticks:   dense  smooth     PW     G-vecs:    dense   smooth      PW
     Min           3       3      1                  439      439      73
     Max           4       4      2                  520      520     132
     Sum         127     127     43                15909    15909    3259
 


     bravais-lattice index     =            4
     lattice parameter (alat)  =       3.1000  a.u.
     unit-cell volume          =     337.0614 (a.u.)^3
     number of atoms/cell      =            2
     number of atomic types    =            1
     number of electrons       =         8.00
     number of Kohn-Sham states=            8
     kinetic-energy cutoff     =      50.0000  Ry
     charge density cutoff     =     200.0000  Ry
     scf convergence threshold =      1.0E-08
     mixing beta               =       0.7000
     number of iterations used =            8  plain     mixing
     Exchange-correlation= PBE
                           (   1   4   3   4   0   0   0)

     celldm(1)=   3.100000  celldm(2)=   0.000000  celldm(3)=  13.064516
     celldm(4)=   0.000000  celldm(5)=   0.000000  celldm(6)=   0.000000

     crystal axes: (cart. coord. in units of alat)
               a(1) = (   1.000000   0.000000   0.000000 )  
               a(2) = (  -0.500000   0.866025   0.000000 )  
               a(3) = (   0.000000   0.000000  13.064516 )  

     reciprocal axes: (cart. coord. in units 2 pi/alat)
               b(1) = (  1.000000  0.577350  0.000000 )  
               b(2) = (  0.000000  1.154701  0.000000 )  
               b(3) = (  0.000000  0.000000  0.076543 )  


     PseudoPot. # 1 for C  read from file:
     /home/yhkim/qe-6.7/pseudo/ONCV1/1.2/C_ONCV_PBE-1.2.upf
     MD5 check sum: 1a5f83a7b1f58d24996abe00ed223ac6
     Pseudo is Norm-conserving, Zval =  4.0
     Generated using ONCVPSP code by D. R. Hamann
     Using radial grid of  602 points,  4 beta functions with: 
                l(1) =   0
                l(2) =   0
                l(3) =   1
                l(4) =   1

     atomic species   valence    mass     pseudopotential
        C              4.00    12.01070     C ( 1.00)

     24 Sym. Ops., with inversion, found



   Cartesian axes

     site n.     atom                  positions (alat units)
         1           C   tau(   1) = (  -0.0000000   0.5773503   6.5322581  )
         2           C   tau(   2) = (   0.5000000   0.2886751   6.5322581  )

     number of k points=    27  Methfessel-Paxton smearing, width (Ry)=  0.0100
                       cart. coord. in units 2pi/alat
        k(    1) = (   0.0000000   0.0000000   0.0000000), wk =   0.0088889
        k(    2) = (   0.0000000   0.0769800   0.0000000), wk =   0.0533333
        k(    3) = (   0.0000000   0.1539601   0.0000000), wk =   0.0533333
        k(    4) = (   0.0000000   0.2309401   0.0000000), wk =   0.0533333
        k(    5) = (   0.0000000   0.3079201   0.0000000), wk =   0.0533333
        k(    6) = (   0.0000000   0.3849002   0.0000000), wk =   0.0533333
        k(    7) = (   0.0000000   0.4618802   0.0000000), wk =   0.0533333
        k(    8) = (   0.0000000   0.5388603   0.0000000), wk =   0.0533333
        k(    9) = (   0.0666667   0.1154701   0.0000000), wk =   0.0533333
        k(   10) = (   0.0666667   0.1924501   0.0000000), wk =   0.1066667
        k(   11) = (   0.0666667   0.2694301   0.0000000), wk =   0.1066667
        k(   12) = (   0.0666667   0.3464102   0.0000000), wk =   0.1066667
        k(   13) = (   0.0666667   0.4233902   0.0000000), wk =   0.1066667
        k(   14) = (   0.0666667   0.5003702   0.0000000), wk =   0.1066667
        k(   15) = (   0.0666667   0.5773503   0.0000000), wk =   0.0533333
        k(   16) = (   0.1333333   0.2309401   0.0000000), wk =   0.0533333
        k(   17) = (   0.1333333   0.3079201   0.0000000), wk =   0.1066667
        k(   18) = (   0.1333333   0.3849002   0.0000000), wk =   0.1066667
        k(   19) = (   0.1333333   0.4618802   0.0000000), wk =   0.1066667
        k(   20) = (   0.1333333   0.5388603   0.0000000), wk =   0.1066667
        k(   21) = (   0.2000000   0.3464102   0.0000000), wk =   0.0533333
        k(   22) = (   0.2000000   0.4233902   0.0000000), wk =   0.1066667
        k(   23) = (   0.2000000   0.5003702   0.0000000), wk =   0.1066667
        k(   24) = (   0.2000000   0.5773503   0.0000000), wk =   0.0533333
        k(   25) = (   0.2666667   0.4618802   0.0000000), wk =   0.0533333
        k(   26) = (   0.2666667   0.5388603   0.0000000), wk =   0.1066667
        k(   27) = (   0.3333333   0.5773503   0.0000000), wk =   0.0177778

     Dense  grid:    15909 G-vectors     FFT dimensions: (  15,  15, 192)

     Estimated max dynamical RAM per process >       0.90 MB

     Estimated total dynamical RAM >      28.78 MB
 ----2D----2D----2D----2D----2D----2D----2D----2D----2D----2D----2D----2D
  The code is running with the 2D cutoff
  Please refer to:
  Sohier, T., Calandra, M., & Mauri, F. (2017), 
  Density functional perturbation theory for gated two-dimensional heterostructu
 res:
  Theoretical developments and application to flexural phonons in graphene.
  Physical Review B, 96(7), 75448. https://doi.org/10.1103/PhysRevB.96.075448
 ----2D----2D----2D----2D----2D----2D----2D----2D----2D----2D----2D----2D

     Initial potential from superposition of free atoms

     starting charge    7.98607, renormalised to    8.00000

     negative rho (up, down):  7.308E-05 0.000E+00
     Starting wfcs are random

     total cpu time spent up to now is        0.1 secs

     Self-consistent Calculation

     iteration #  1     ecut=    50.00 Ry     beta= 0.70
     Davidson diagonalization with overlap
     ethr =  1.00E-02,  avg # of iterations = 14.4

     negative rho (up, down):  6.891E-07 0.000E+00

     total cpu time spent up to now is        0.5 secs

     total energy              =     -19.53627987 Ry
     estimated scf accuracy    <       2.06390415 Ry

     iteration #  2     ecut=    50.00 Ry     beta= 0.70
     Davidson diagonalization with overlap
     ethr =  1.00E-02,  avg # of iterations =  4.4

     total cpu time spent up to now is        0.6 secs

     total energy              =     -19.85806119 Ry
     estimated scf accuracy    <       0.08744807 Ry

     iteration #  3     ecut=    50.00 Ry     beta= 0.70
     Davidson diagonalization with overlap
     ethr =  1.09E-03,  avg # of iterations =  4.5

     total cpu time spent up to now is        0.7 secs

     total energy              =     -19.89750929 Ry
     estimated scf accuracy    <       0.05138234 Ry

     iteration #  4     ecut=    50.00 Ry     beta= 0.70
     Davidson diagonalization with overlap
     ethr =  6.42E-04,  avg # of iterations =  2.8

     total cpu time spent up to now is        0.8 secs

     total energy              =     -19.89989015 Ry
     estimated scf accuracy    <       0.00465562 Ry

     iteration #  5     ecut=    50.00 Ry     beta= 0.70
     Davidson diagonalization with overlap
     ethr =  5.82E-05,  avg # of iterations =  5.5

     total cpu time spent up to now is        0.9 secs

     total energy              =     -19.90099768 Ry
     estimated scf accuracy    <       0.00008904 Ry

     iteration #  6     ecut=    50.00 Ry     beta= 0.70
     Davidson diagonalization with overlap
     c_bands:  1 eigenvalues not converged
     ethr =  1.11E-06,  avg # of iterations =  6.0

     total cpu time spent up to now is        1.1 secs

     total energy              =     -19.90102295 Ry
     estimated scf accuracy    <       0.00000666 Ry

     iteration #  7     ecut=    50.00 Ry     beta= 0.70
     Davidson diagonalization with overlap
     ethr =  8.33E-08,  avg # of iterations =  2.3

     total cpu time spent up to now is        1.2 secs

     total energy              =     -19.90102199 Ry
     estimated scf accuracy    <       0.00000417 Ry

     iteration #  8     ecut=    50.00 Ry     beta= 0.70
     Davidson diagonalization with overlap
     ethr =  5.21E-08,  avg # of iterations =  2.9

     total cpu time spent up to now is        1.3 secs

     total energy              =     -19.90102139 Ry
     estimated scf accuracy    <       0.00000136 Ry

     iteration #  9     ecut=    50.00 Ry     beta= 0.70
     Davidson diagonalization with overlap
     ethr =  1.70E-08,  avg # of iterations =  1.2

     total cpu time spent up to now is        1.4 secs

     total energy              =     -19.90102108 Ry
     estimated scf accuracy    <       0.00000050 Ry

     iteration # 10     ecut=    50.00 Ry     beta= 0.70
     Davidson diagonalization with overlap
     ethr =  6.25E-09,  avg # of iterations =  2.0

     total cpu time spent up to now is        1.5 secs

     total energy              =     -19.90102108 Ry
     estimated scf accuracy    <       0.00000005 Ry

     iteration # 11     ecut=    50.00 Ry     beta= 0.70
     Davidson diagonalization with overlap
     ethr =  6.69E-10,  avg # of iterations =  2.1

     total cpu time spent up to now is        1.6 secs

     End of self-consistent calculation

          k = 0.0000 0.0000 0.0000 (  2083 PWs)   bands (ev):

   -32.4863 -21.8496  -2.9647  -1.9272  -1.4718  -0.1512   0.3007   1.6697

          k = 0.0000 0.0770 0.0000 (  2046 PWs)   bands (ev):

   -32.3145 -21.5332  -2.6980  -2.2876  -2.2259  -1.5973   0.1738   0.6312

          k = 0.0000 0.1540 0.0000 (  2060 PWs)   bands (ev):

   -31.8070 -20.5945  -4.6470  -4.0398  -1.6578  -0.6086   1.1556   1.6221

          k = 0.0000 0.2309 0.0000 (  2060 PWs)   bands (ev):

   -30.9875 -19.0358  -7.6069  -6.1485  -0.0617   1.0378   2.7935   3.2727

          k = 0.0000 0.3079 0.0000 (  2054 PWs)   bands (ev):

   -29.9008 -16.8750 -10.6968  -8.0975   2.1730   3.3370   5.0860   5.5796

          k = 0.0000 0.3849 0.0000 (  2030 PWs)   bands (ev):

   -28.6293 -14.1518 -13.5665  -9.6684   5.0382   6.2427   8.0318   8.4761

          k = 0.0000 0.4619 0.0000 (  1994 PWs)   bands (ev):

   -27.3417 -15.9443 -10.9936 -10.7489   4.6938   8.5259  10.0182  11.6295

          k = 0.0000 0.5389 0.0000 (  1982 PWs)   bands (ev):

   -26.4117 -17.4213 -11.3011  -7.9999   0.6372  12.6179  14.2515  15.8675

          k = 0.0667 0.1155 0.0000 (  2049 PWs)   bands (ev):

   -31.9748 -20.9057  -3.7449  -3.6992  -1.9654  -0.9380   0.8288   1.2919

          k = 0.0667 0.1925 0.0000 (  2060 PWs)   bands (ev):

   -31.3112 -19.6573  -6.3024  -5.6538  -0.6934   0.3796   2.1399   2.6127

          k = 0.0667 0.2694 0.0000 (  2054 PWs)   bands (ev):

   -30.3577 -17.7952  -9.2811  -7.6269   1.2234   2.3535   4.1058   4.5923

          k = 0.0667 0.3464 0.0000 (  2046 PWs)   bands (ev):

   -29.1753 -15.3493 -12.2242  -9.3332   3.7741   4.9715   6.7254   7.2209

          k = 0.0667 0.4234 0.0000 (  2014 PWs)   bands (ev):

   -27.8794 -14.8313 -12.3842 -10.6189   6.9510   7.1266   8.5552   9.9975

          k = 0.0667 0.5004 0.0000 (  1978 PWs)   bands (ev):

   -26.7210 -16.7849 -11.4132  -9.1529   2.5534  10.7433  12.2794  13.9198

          k = 0.0667 0.5774 0.0000 (  1970 PWs)   bands (ev):

   -26.2087 -17.5655 -11.6818  -7.1426   0.0109  14.9193  15.3653  16.7653

          k = 0.1333 0.2309 0.0000 (  2051 PWs)   bands (ev):

   -30.5135 -18.1026  -8.4577  -7.7856   0.9124   2.0253   3.7806   4.2629

          k = 0.1333 0.3079 0.0000 (  2040 PWs)   bands (ev):

   -29.4613 -15.9516 -11.0834  -9.5849   3.1507   4.3235   6.0751   6.5695

          k = 0.1333 0.3849 0.0000 (  2022 PWs)   bands (ev):

   -28.2397 -13.6657 -13.2409 -10.9960   6.0160   7.2322   9.0218   9.4415

          k = 0.1333 0.4619 0.0000 (  1988 PWs)   bands (ev):

   -27.0165 -15.8375 -11.9754 -10.0869   5.0771   9.4995  10.9392  12.6195

          k = 0.1333 0.5389 0.0000 (  1978 PWs)   bands (ev):

   -26.1560 -17.1819 -12.4824  -7.0600   1.0812  13.5831  15.1398  16.8610

          k = 0.2000 0.3464 0.0000 (  2015 PWs)   bands (ev):

   -28.3658 -13.5294 -12.9885 -11.4075   5.7067   6.9398   8.6975   9.1990

          k = 0.2000 0.4234 0.0000 (  1988 PWs)   bands (ev):

   -27.1928 -14.9071 -12.7095 -10.5885   7.3266   8.8807  10.2002  11.9701

          k = 0.2000 0.5004 0.0000 (  1987 PWs)   bands (ev):

   -26.1886 -16.4322 -13.4792  -7.3476   3.0778  12.6553  13.9284  15.8894

          k = 0.2000 0.5774 0.0000 (  1986 PWs)   bands (ev):

   -25.7635 -17.0413 -13.7351  -5.2294   0.5882  16.0687  16.9121  17.0851

          k = 0.2667 0.4619 0.0000 (  1976 PWs)   bands (ev):

   -26.2119 -15.8800 -14.1054  -7.4934   4.2424  12.3455  13.2742  15.3906

          k = 0.2667 0.5389 0.0000 (  1964 PWs)   bands (ev):

   -25.5755 -16.4798 -14.8677  -4.3424   1.0453  13.4983  16.3717  18.4885

          k = 0.3333 0.5774 0.0000 (  1962 PWs)   bands (ev):

   -25.3482 -15.9309 -15.9309  -1.4211  -1.4211  12.3435  20.4972  20.4982

     the Fermi energy is    -2.2088 ev

!    total energy              =     -19.90102109 Ry
     estimated scf accuracy    <          1.4E-09 Ry
     smearing contrib. (-TS)   =      -0.00007150 Ry
     internal energy E=F+TS    =     -19.90094959 Ry

     The total energy is F=E-TS. E is the sum of the following terms:
     one-electron contribution =    -883.61199351 Ry
     hartree contribution      =     443.09979401 Ry
     xc contribution           =      -9.19189576 Ry
     ewald contribution        =     429.80314567 Ry

     convergence has been achieved in  11 iterations

     Forces acting on atoms (cartesian axes, Ry/au):

     atom    1 type  1   force =     0.00000000    0.00000000    0.00000000
     atom    2 type  1   force =     0.00000000    0.00000000    0.00000000

     Total force =     0.000000     Total SCF correction =     0.000000


     Computing stress (Cartesian axis) and pressure

          total   stress  (Ry/bohr**3)                   (kbar)     P=     2517.83
   0.02590549  -0.00000000   0.00000000         3810.83       -0.00        0.00
  -0.00000000   0.02590549   0.00000000           -0.00     3810.83        0.00
  -0.00000000   0.00000000  -0.00046347           -0.00        0.00      -68.18


     Writing output data file ./work/LiC310.save/
 
     init_run     :      0.06s CPU      0.07s WALL (       1 calls)
     electrons    :      1.33s CPU      1.47s WALL (       1 calls)
     forces       :      0.00s CPU      0.01s WALL (       1 calls)
     stress       :      0.01s CPU      0.01s WALL (       1 calls)

     Called by init_run:
     wfcinit      :      0.04s CPU      0.05s WALL (       1 calls)
     potinit      :      0.01s CPU      0.01s WALL (       1 calls)
     hinit0       :      0.00s CPU      0.01s WALL (       1 calls)

     Called by electrons:
     c_bands      :      1.16s CPU      1.27s WALL (      11 calls)
     sum_band     :      0.14s CPU      0.16s WALL (      11 calls)
     v_of_rho     :      0.02s CPU      0.02s WALL (      12 calls)
     mix_rho      :      0.00s CPU      0.00s WALL (      11 calls)

     Called by c_bands:
     init_us_2    :      0.01s CPU      0.01s WALL (     675 calls)
     cegterg      :      1.13s CPU      1.24s WALL (     297 calls)

     Called by *egterg:
     cdiaghg      :      0.13s CPU      0.15s WALL (    1595 calls)
     h_psi        :      0.94s CPU      1.03s WALL (    1622 calls)
     g_psi        :      0.00s CPU      0.00s WALL (    1298 calls)

     Called by h_psi:
     h_psi:calbec :      0.03s CPU      0.03s WALL (    1622 calls)
     vloc_psi     :      0.89s CPU      0.98s WALL (    1622 calls)
     add_vuspsi   :      0.01s CPU      0.01s WALL (    1622 calls)

     General routines
     calbec       :      0.02s CPU      0.03s WALL (    1757 calls)
     fft          :      0.02s CPU      0.02s WALL (     127 calls)
     ffts         :      0.00s CPU      0.00s WALL (      11 calls)
     fftw         :      0.97s CPU      1.07s WALL (   18658 calls)
 
     Parallel routines
     fft_scatt_xy :      0.05s CPU      0.06s WALL (   18796 calls)
     fft_scatt_yz :      0.45s CPU      0.49s WALL (   18796 calls)
 
     PWSCF        :      1.44s CPU      1.74s WALL

 
   This run was terminated on:  10:37:16  22Jan2024            

=------------------------------------------------------------------------------=
   JOB DONE.
=------------------------------------------------------------------------------=
