
     Program PWSCF v.6.7MaX starts on 22Jan2024 at 10:37:24 

     This program is part of the open-source Quantum ESPRESSO suite
     for quantum simulation of materials; please cite
         "P. Giannozzi et al., J. Phys.:Condens. Matter 21 395502 (2009);
         "P. Giannozzi et al., J. Phys.:Condens. Matter 29 465901 (2017);
          URL http://www.quantum-espresso.org", 
     in publications or presentations arising from this work. More details at
     http://www.quantum-espresso.org/quote

     Parallel version (MPI), running on    32 processors

     MPI processes distributed on     1 nodes
     R & G space division:  proc/nbgrp/npool/nimage =      32
     Waiting for input...
     Reading input from standard input
Warning: card &CELL ignored
Warning: card  CELL_DYNAMICS = 'BFGS', ignored
Warning: card  PRESS = 0.0, ignored
Warning: card  PRESS_CONV_THR = 1D-3, ignored
Warning: card  CELL_DOFREE='2DXY' ignored
Warning: card / ignored

     Current dimensions of program PWSCF are:
     Max number of different atomic species (ntypx) = 10
     Max number of k-points (npk) =  40000
     Max angular momentum in pseudopotentials (lmaxx) =  3
     Message from routine read_pp_mesh:
     mesh size missing, using the one in header

     Subspace diagonalization in iterative solution of the eigenvalue problem:
     a serial algorithm will be used

 
     Parallelization info
     --------------------
     sticks:   dense  smooth     PW     G-vecs:    dense   smooth      PW
     Min           5       5      1                  621      621      97
     Max           6       6      2                  672      672     150
     Sum         163     163     55                20493    20493    4097
 


     bravais-lattice index     =            4
     lattice parameter (alat)  =       3.5000  a.u.
     unit-cell volume          =     429.6569 (a.u.)^3
     number of atoms/cell      =            2
     number of atomic types    =            1
     number of electrons       =         8.00
     number of Kohn-Sham states=            8
     kinetic-energy cutoff     =      50.0000  Ry
     charge density cutoff     =     200.0000  Ry
     scf convergence threshold =      1.0E-08
     mixing beta               =       0.7000
     number of iterations used =            8  plain     mixing
     Exchange-correlation= PBE
                           (   1   4   3   4   0   0   0)

     celldm(1)=   3.500000  celldm(2)=   0.000000  celldm(3)=  11.571429
     celldm(4)=   0.000000  celldm(5)=   0.000000  celldm(6)=   0.000000

     crystal axes: (cart. coord. in units of alat)
               a(1) = (   1.000000   0.000000   0.000000 )  
               a(2) = (  -0.500000   0.866025   0.000000 )  
               a(3) = (   0.000000   0.000000  11.571429 )  

     reciprocal axes: (cart. coord. in units 2 pi/alat)
               b(1) = (  1.000000  0.577350  0.000000 )  
               b(2) = (  0.000000  1.154701  0.000000 )  
               b(3) = (  0.000000  0.000000  0.086420 )  


     PseudoPot. # 1 for C  read from file:
     /home/yhkim/qe-6.7/pseudo/ONCV1/1.2/C_ONCV_PBE-1.2.upf
     MD5 check sum: 1a5f83a7b1f58d24996abe00ed223ac6
     Pseudo is Norm-conserving, Zval =  4.0
     Generated using ONCVPSP code by D. R. Hamann
     Using radial grid of  602 points,  4 beta functions with: 
                l(1) =   0
                l(2) =   0
                l(3) =   1
                l(4) =   1

     atomic species   valence    mass     pseudopotential
        C              4.00    12.01070     C ( 1.00)

     24 Sym. Ops., with inversion, found



   Cartesian axes

     site n.     atom                  positions (alat units)
         1           C   tau(   1) = (  -0.0000000   0.5773503   5.7857143  )
         2           C   tau(   2) = (   0.5000000   0.2886751   5.7857143  )

     number of k points=    27  Methfessel-Paxton smearing, width (Ry)=  0.0100
                       cart. coord. in units 2pi/alat
        k(    1) = (   0.0000000   0.0000000   0.0000000), wk =   0.0088889
        k(    2) = (   0.0000000   0.0769800   0.0000000), wk =   0.0533333
        k(    3) = (   0.0000000   0.1539601   0.0000000), wk =   0.0533333
        k(    4) = (   0.0000000   0.2309401   0.0000000), wk =   0.0533333
        k(    5) = (   0.0000000   0.3079201   0.0000000), wk =   0.0533333
        k(    6) = (   0.0000000   0.3849002   0.0000000), wk =   0.0533333
        k(    7) = (   0.0000000   0.4618802   0.0000000), wk =   0.0533333
        k(    8) = (   0.0000000   0.5388603   0.0000000), wk =   0.0533333
        k(    9) = (   0.0666667   0.1154701   0.0000000), wk =   0.0533333
        k(   10) = (   0.0666667   0.1924501   0.0000000), wk =   0.1066667
        k(   11) = (   0.0666667   0.2694301   0.0000000), wk =   0.1066667
        k(   12) = (   0.0666667   0.3464102   0.0000000), wk =   0.1066667
        k(   13) = (   0.0666667   0.4233902   0.0000000), wk =   0.1066667
        k(   14) = (   0.0666667   0.5003702   0.0000000), wk =   0.1066667
        k(   15) = (   0.0666667   0.5773503   0.0000000), wk =   0.0533333
        k(   16) = (   0.1333333   0.2309401   0.0000000), wk =   0.0533333
        k(   17) = (   0.1333333   0.3079201   0.0000000), wk =   0.1066667
        k(   18) = (   0.1333333   0.3849002   0.0000000), wk =   0.1066667
        k(   19) = (   0.1333333   0.4618802   0.0000000), wk =   0.1066667
        k(   20) = (   0.1333333   0.5388603   0.0000000), wk =   0.1066667
        k(   21) = (   0.2000000   0.3464102   0.0000000), wk =   0.0533333
        k(   22) = (   0.2000000   0.4233902   0.0000000), wk =   0.1066667
        k(   23) = (   0.2000000   0.5003702   0.0000000), wk =   0.1066667
        k(   24) = (   0.2000000   0.5773503   0.0000000), wk =   0.0533333
        k(   25) = (   0.2666667   0.4618802   0.0000000), wk =   0.0533333
        k(   26) = (   0.2666667   0.5388603   0.0000000), wk =   0.1066667
        k(   27) = (   0.3333333   0.5773503   0.0000000), wk =   0.0177778

     Dense  grid:    20493 G-vectors     FFT dimensions: (  15,  15, 192)

     Estimated max dynamical RAM per process >       1.03 MB

     Estimated total dynamical RAM >      32.97 MB
 ----2D----2D----2D----2D----2D----2D----2D----2D----2D----2D----2D----2D
  The code is running with the 2D cutoff
  Please refer to:
  Sohier, T., Calandra, M., & Mauri, F. (2017), 
  Density functional perturbation theory for gated two-dimensional heterostructu
 res:
  Theoretical developments and application to flexural phonons in graphene.
  Physical Review B, 96(7), 75448. https://doi.org/10.1103/PhysRevB.96.075448
 ----2D----2D----2D----2D----2D----2D----2D----2D----2D----2D----2D----2D

     Initial potential from superposition of free atoms

     starting charge    7.98607, renormalised to    8.00000

     negative rho (up, down):  8.314E-05 0.000E+00
     Starting wfcs are random

     total cpu time spent up to now is        0.1 secs

     Self-consistent Calculation

     iteration #  1     ecut=    50.00 Ry     beta= 0.70
     Davidson diagonalization with overlap
     ethr =  1.00E-02,  avg # of iterations = 13.1

     negative rho (up, down):  1.020E-06 0.000E+00

     total cpu time spent up to now is        0.5 secs

     total energy              =     -21.37036150 Ry
     estimated scf accuracy    <       1.13188419 Ry

     iteration #  2     ecut=    50.00 Ry     beta= 0.70
     Davidson diagonalization with overlap
     ethr =  1.00E-02,  avg # of iterations =  3.5

     total cpu time spent up to now is        0.6 secs

     total energy              =     -21.55703268 Ry
     estimated scf accuracy    <       0.01096380 Ry

     iteration #  3     ecut=    50.00 Ry     beta= 0.70
     Davidson diagonalization with overlap
     ethr =  1.37E-04,  avg # of iterations =  7.1

     total cpu time spent up to now is        0.8 secs

     total energy              =     -21.56833989 Ry
     estimated scf accuracy    <       0.00489648 Ry

     iteration #  4     ecut=    50.00 Ry     beta= 0.70
     Davidson diagonalization with overlap
     ethr =  6.12E-05,  avg # of iterations =  5.5

     total cpu time spent up to now is        0.9 secs

     total energy              =     -21.57019688 Ry
     estimated scf accuracy    <       0.00013974 Ry

     iteration #  5     ecut=    50.00 Ry     beta= 0.70
     Davidson diagonalization with overlap
     c_bands:  1 eigenvalues not converged
     c_bands:  1 eigenvalues not converged
     ethr =  1.75E-06,  avg # of iterations =  6.4

     total cpu time spent up to now is        1.1 secs

     total energy              =     -21.57017434 Ry
     estimated scf accuracy    <       0.00009870 Ry

     iteration #  6     ecut=    50.00 Ry     beta= 0.70
     Davidson diagonalization with overlap
     ethr =  1.23E-06,  avg # of iterations =  5.7

     total cpu time spent up to now is        1.2 secs

     total energy              =     -21.57020061 Ry
     estimated scf accuracy    <       0.00006372 Ry

     iteration #  7     ecut=    50.00 Ry     beta= 0.70
     Davidson diagonalization with overlap
     ethr =  7.96E-07,  avg # of iterations =  1.9

     total cpu time spent up to now is        1.3 secs

     total energy              =     -21.57020678 Ry
     estimated scf accuracy    <       0.00000112 Ry

     iteration #  8     ecut=    50.00 Ry     beta= 0.70
     Davidson diagonalization with overlap
     ethr =  1.40E-08,  avg # of iterations =  2.3

     total cpu time spent up to now is        1.4 secs

     total energy              =     -21.57020720 Ry
     estimated scf accuracy    <       0.00000061 Ry

     iteration #  9     ecut=    50.00 Ry     beta= 0.70
     Davidson diagonalization with overlap
     ethr =  7.68E-09,  avg # of iterations =  1.1

     total cpu time spent up to now is        1.5 secs

     End of self-consistent calculation

          k = 0.0000 0.0000 0.0000 (  2467 PWs)   bands (ev):

   -28.8520 -17.0112  -3.0834  -1.7802  -0.9865   0.1008   0.5300   1.8265

          k = 0.0000 0.0770 0.0000 (  2479 PWs)   bands (ev):

   -28.6944 -16.7686  -3.7652  -3.6198  -1.5298  -0.7278   0.3569   0.7889

          k = 0.0000 0.1540 0.0000 (  2515 PWs)   bands (ev):

   -28.2249 -16.0464  -5.5751  -4.9229  -0.7727   0.0478   1.1277   1.5651

          k = 0.0000 0.2309 0.0000 (  2511 PWs)   bands (ev):

   -27.4516 -14.8470  -8.0229  -6.4653   0.4908   1.3395   2.4144   2.8581

          k = 0.0000 0.3079 0.0000 (  2545 PWs)   bands (ev):

   -26.3919 -13.1910 -10.7117  -7.9123   2.2572   3.1433   4.2162   4.6636

          k = 0.0000 0.3849 0.0000 (  2577 PWs)   bands (ev):

   -25.0775 -13.3712 -11.1158  -9.0911   4.5234   5.4113   6.5326   6.8662

          k = 0.0000 0.4619 0.0000 (  2587 PWs)   bands (ev):

   -23.5892 -15.8002  -9.9089  -8.7334   3.5784   7.2842   8.3646   9.3627

          k = 0.0000 0.5389 0.0000 (  2586 PWs)   bands (ev):

   -22.2535 -17.6157 -10.3273  -6.5470   0.6045  10.5307  11.6951  12.7040

          k = 0.0667 0.1155 0.0000 (  2494 PWs)   bands (ev):

   -28.3808 -16.2857  -4.8733  -4.6684  -1.0241  -0.2106   0.8708   1.3065

          k = 0.0667 0.1925 0.0000 (  2512 PWs)   bands (ev):

   -27.7593 -15.3250  -6.8639  -6.1982  -0.0115   0.8231   1.9004   2.3412

          k = 0.0667 0.2694 0.0000 (  2538 PWs)   bands (ev):

   -26.8424 -13.8961  -9.3881  -7.6934   1.5047   2.3716   3.4453   3.8912

          k = 0.0667 0.3464 0.0000 (  2558 PWs)   bands (ev):

   -25.6527 -12.0379 -12.0246  -8.9845   3.5219   4.4251   5.5048   5.9453

          k = 0.0667 0.4234 0.0000 (  2581 PWs)   bands (ev):

   -24.2389 -14.5790  -9.9624  -9.7741   5.4470   6.0357   7.1238   8.0783

          k = 0.0667 0.5004 0.0000 (  2572 PWs)   bands (ev):

   -22.7535 -16.7652 -10.5651  -7.3643   1.9668   9.0397  10.1460  11.1646

          k = 0.0667 0.5774 0.0000 (  2580 PWs)   bands (ev):

   -21.9017 -17.8546 -10.7706  -5.9370   0.1451  12.4685  12.5755  13.6910

          k = 0.1333 0.2309 0.0000 (  2538 PWs)   bands (ev):

   -26.9938 -14.1326  -8.3106  -8.2486   1.2566   2.1141   3.1892   3.6335

          k = 0.1333 0.3079 0.0000 (  2575 PWs)   bands (ev):

   -25.9453 -12.4843 -10.7246  -9.5996   3.0258   3.9174   4.9926   5.4389

          k = 0.1333 0.3849 0.0000 (  2585 PWs)   bands (ev):

   -24.6460 -13.2320 -10.6633 -10.4178   5.2920   6.1830   7.3097   7.3957

          k = 0.1333 0.4619 0.0000 (  2580 PWs)   bands (ev):

   -23.1767 -15.5645 -11.4048  -8.0382   3.7369   8.0492   9.0912  10.1396

          k = 0.1333 0.5389 0.0000 (  2588 PWs)   bands (ev):

   -21.8609 -17.3277 -11.7850  -5.8243   0.8234  11.2858  12.3884  13.4804

          k = 0.2000 0.3464 0.0000 (  2600 PWs)   bands (ev):

   -24.7841 -12.1238 -11.5754 -10.6352   5.0452   5.9710   7.0538   7.4960

          k = 0.2000 0.4234 0.0000 (  2596 PWs)   bands (ev):

   -23.4097 -14.2469 -12.5782  -8.4049   5.2211   7.5551   8.5224   9.6274

          k = 0.2000 0.5004 0.0000 (  2591 PWs)   bands (ev):

   -21.9742 -16.2481 -13.1210  -5.9831   2.0999  10.5432  11.4631  12.7109

          k = 0.2000 0.5774 0.0000 (  2576 PWs)   bands (ev):

   -21.1572 -17.2609 -13.3011  -4.4611   0.3219  13.2817  13.9609  13.9985

          k = 0.2667 0.4619 0.0000 (  2596 PWs)   bands (ev):

   -22.0349 -15.2794 -14.1717  -6.0712   2.8056  10.2953  11.0348  12.4555

          k = 0.2667 0.5389 0.0000 (  2590 PWs)   bands (ev):

   -20.8478 -16.4995 -14.7965  -3.7394   0.4169  11.6256  13.4792  15.0427

          k = 0.3333 0.5774 0.0000 (  2592 PWs)   bands (ev):

   -20.3232 -16.0506 -16.0506  -1.5288  -1.5288  10.8974  16.6805  16.6806

     the Fermi energy is    -1.5823 ev

!    total energy              =     -21.57020727 Ry
     estimated scf accuracy    <          6.1E-09 Ry
     smearing contrib. (-TS)   =      -0.00007035 Ry
     internal energy E=F+TS    =     -21.57013692 Ry

     The total energy is F=E-TS. E is the sum of the following terms:
     one-electron contribution =    -691.14480224 Ry
     hartree contribution      =     346.87878699 Ry
     xc contribution           =      -8.46624474 Ry
     ewald contribution        =     331.16212307 Ry

     convergence has been achieved in   9 iterations

     Forces acting on atoms (cartesian axes, Ry/au):

     atom    1 type  1   force =     0.00000000    0.00000000    0.00000000
     atom    2 type  1   force =     0.00000000    0.00000000    0.00000000

     Total force =     0.000000     Total SCF correction =     0.000000


     Computing stress (Cartesian axis) and pressure

          total   stress  (Ry/bohr**3)                   (kbar)     P=     1115.49
   0.01150516   0.00000000   0.00000000         1692.47        0.00        0.00
   0.00000000   0.01150516  -0.00000000            0.00     1692.47       -0.00
   0.00000000   0.00000000  -0.00026149            0.00        0.00      -38.47


     Writing output data file ./work/LiC350.save/
 
     init_run     :      0.09s CPU      0.11s WALL (       1 calls)
     electrons    :      1.20s CPU      1.33s WALL (       1 calls)
     forces       :      0.01s CPU      0.01s WALL (       1 calls)
     stress       :      0.01s CPU      0.01s WALL (       1 calls)

     Called by init_run:
     wfcinit      :      0.05s CPU      0.05s WALL (       1 calls)
     potinit      :      0.04s CPU      0.05s WALL (       1 calls)
     hinit0       :      0.00s CPU      0.00s WALL (       1 calls)

     Called by electrons:
     c_bands      :      1.07s CPU      1.17s WALL (       9 calls)
     sum_band     :      0.12s CPU      0.14s WALL (       9 calls)
     v_of_rho     :      0.01s CPU      0.02s WALL (      10 calls)
     mix_rho      :      0.00s CPU      0.00s WALL (       9 calls)

     Called by c_bands:
     init_us_2    :      0.01s CPU      0.01s WALL (     567 calls)
     cegterg      :      1.04s CPU      1.14s WALL (     243 calls)

     Called by *egterg:
     cdiaghg      :      0.13s CPU      0.14s WALL (    1504 calls)
     h_psi        :      0.86s CPU      0.94s WALL (    1531 calls)
     g_psi        :      0.00s CPU      0.00s WALL (    1261 calls)

     Called by h_psi:
     h_psi:calbec :      0.03s CPU      0.03s WALL (    1531 calls)
     vloc_psi     :      0.81s CPU      0.89s WALL (    1531 calls)
     add_vuspsi   :      0.01s CPU      0.01s WALL (    1531 calls)

     General routines
     calbec       :      0.03s CPU      0.03s WALL (    1666 calls)
     fft          :      0.01s CPU      0.02s WALL (     107 calls)
     ffts         :      0.00s CPU      0.00s WALL (       9 calls)
     fftw         :      0.88s CPU      0.96s WALL (   16682 calls)
 
     Parallel routines
     fft_scatt_xy :      0.05s CPU      0.05s WALL (   16798 calls)
     fft_scatt_yz :      0.41s CPU      0.45s WALL (   16798 calls)
 
     PWSCF        :      1.36s CPU      1.66s WALL

 
   This run was terminated on:  10:37:26  22Jan2024            

=------------------------------------------------------------------------------=
   JOB DONE.
=------------------------------------------------------------------------------=
