
     Program PWSCF v.6.7MaX starts on 22Jan2024 at 10:37:19 

     This program is part of the open-source Quantum ESPRESSO suite
     for quantum simulation of materials; please cite
         "P. Giannozzi et al., J. Phys.:Condens. Matter 21 395502 (2009);
         "P. Giannozzi et al., J. Phys.:Condens. Matter 29 465901 (2017);
          URL http://www.quantum-espresso.org", 
     in publications or presentations arising from this work. More details at
     http://www.quantum-espresso.org/quote

     Parallel version (MPI), running on    32 processors

     MPI processes distributed on     1 nodes
     R & G space division:  proc/nbgrp/npool/nimage =      32
     Waiting for input...
     Reading input from standard input
Warning: card &CELL ignored
Warning: card  CELL_DYNAMICS = 'BFGS', ignored
Warning: card  PRESS = 0.0, ignored
Warning: card  PRESS_CONV_THR = 1D-3, ignored
Warning: card  CELL_DOFREE='2DXY' ignored
Warning: card / ignored

     Current dimensions of program PWSCF are:
     Max number of different atomic species (ntypx) = 10
     Max number of k-points (npk) =  40000
     Max angular momentum in pseudopotentials (lmaxx) =  3
     Message from routine read_pp_mesh:
     mesh size missing, using the one in header

     Subspace diagonalization in iterative solution of the eigenvalue problem:
     a serial algorithm will be used

 
     Parallelization info
     --------------------
     sticks:   dense  smooth     PW     G-vecs:    dense   smooth      PW
     Min           4       4      1                  542      542      95
     Max           5       5      2                  597      597     142
     Sum         151     151     55                18333    18333    3809
 


     bravais-lattice index     =            4
     lattice parameter (alat)  =       3.3000  a.u.
     unit-cell volume          =     381.9562 (a.u.)^3
     number of atoms/cell      =            2
     number of atomic types    =            1
     number of electrons       =         8.00
     number of Kohn-Sham states=            8
     kinetic-energy cutoff     =      50.0000  Ry
     charge density cutoff     =     200.0000  Ry
     scf convergence threshold =      1.0E-08
     mixing beta               =       0.7000
     number of iterations used =            8  plain     mixing
     Exchange-correlation= PBE
                           (   1   4   3   4   0   0   0)

     celldm(1)=   3.300000  celldm(2)=   0.000000  celldm(3)=  12.272727
     celldm(4)=   0.000000  celldm(5)=   0.000000  celldm(6)=   0.000000

     crystal axes: (cart. coord. in units of alat)
               a(1) = (   1.000000   0.000000   0.000000 )  
               a(2) = (  -0.500000   0.866025   0.000000 )  
               a(3) = (   0.000000   0.000000  12.272727 )  

     reciprocal axes: (cart. coord. in units 2 pi/alat)
               b(1) = (  1.000000  0.577350  0.000000 )  
               b(2) = (  0.000000  1.154701  0.000000 )  
               b(3) = (  0.000000  0.000000  0.081481 )  


     PseudoPot. # 1 for C  read from file:
     /home/yhkim/qe-6.7/pseudo/ONCV1/1.2/C_ONCV_PBE-1.2.upf
     MD5 check sum: 1a5f83a7b1f58d24996abe00ed223ac6
     Pseudo is Norm-conserving, Zval =  4.0
     Generated using ONCVPSP code by D. R. Hamann
     Using radial grid of  602 points,  4 beta functions with: 
                l(1) =   0
                l(2) =   0
                l(3) =   1
                l(4) =   1

     atomic species   valence    mass     pseudopotential
        C              4.00    12.01070     C ( 1.00)

     24 Sym. Ops., with inversion, found



   Cartesian axes

     site n.     atom                  positions (alat units)
         1           C   tau(   1) = (  -0.0000000   0.5773503   6.1363636  )
         2           C   tau(   2) = (   0.5000000   0.2886751   6.1363636  )

     number of k points=    27  Methfessel-Paxton smearing, width (Ry)=  0.0100
                       cart. coord. in units 2pi/alat
        k(    1) = (   0.0000000   0.0000000   0.0000000), wk =   0.0088889
        k(    2) = (   0.0000000   0.0769800   0.0000000), wk =   0.0533333
        k(    3) = (   0.0000000   0.1539601   0.0000000), wk =   0.0533333
        k(    4) = (   0.0000000   0.2309401   0.0000000), wk =   0.0533333
        k(    5) = (   0.0000000   0.3079201   0.0000000), wk =   0.0533333
        k(    6) = (   0.0000000   0.3849002   0.0000000), wk =   0.0533333
        k(    7) = (   0.0000000   0.4618802   0.0000000), wk =   0.0533333
        k(    8) = (   0.0000000   0.5388603   0.0000000), wk =   0.0533333
        k(    9) = (   0.0666667   0.1154701   0.0000000), wk =   0.0533333
        k(   10) = (   0.0666667   0.1924501   0.0000000), wk =   0.1066667
        k(   11) = (   0.0666667   0.2694301   0.0000000), wk =   0.1066667
        k(   12) = (   0.0666667   0.3464102   0.0000000), wk =   0.1066667
        k(   13) = (   0.0666667   0.4233902   0.0000000), wk =   0.1066667
        k(   14) = (   0.0666667   0.5003702   0.0000000), wk =   0.1066667
        k(   15) = (   0.0666667   0.5773503   0.0000000), wk =   0.0533333
        k(   16) = (   0.1333333   0.2309401   0.0000000), wk =   0.0533333
        k(   17) = (   0.1333333   0.3079201   0.0000000), wk =   0.1066667
        k(   18) = (   0.1333333   0.3849002   0.0000000), wk =   0.1066667
        k(   19) = (   0.1333333   0.4618802   0.0000000), wk =   0.1066667
        k(   20) = (   0.1333333   0.5388603   0.0000000), wk =   0.1066667
        k(   21) = (   0.2000000   0.3464102   0.0000000), wk =   0.0533333
        k(   22) = (   0.2000000   0.4233902   0.0000000), wk =   0.1066667
        k(   23) = (   0.2000000   0.5003702   0.0000000), wk =   0.1066667
        k(   24) = (   0.2000000   0.5773503   0.0000000), wk =   0.0533333
        k(   25) = (   0.2666667   0.4618802   0.0000000), wk =   0.0533333
        k(   26) = (   0.2666667   0.5388603   0.0000000), wk =   0.1066667
        k(   27) = (   0.3333333   0.5773503   0.0000000), wk =   0.0177778

     Dense  grid:    18333 G-vectors     FFT dimensions: (  15,  15, 192)

     Estimated max dynamical RAM per process >       0.97 MB

     Estimated total dynamical RAM >      30.90 MB
 ----2D----2D----2D----2D----2D----2D----2D----2D----2D----2D----2D----2D
  The code is running with the 2D cutoff
  Please refer to:
  Sohier, T., Calandra, M., & Mauri, F. (2017), 
  Density functional perturbation theory for gated two-dimensional heterostructu
 res:
  Theoretical developments and application to flexural phonons in graphene.
  Physical Review B, 96(7), 75448. https://doi.org/10.1103/PhysRevB.96.075448
 ----2D----2D----2D----2D----2D----2D----2D----2D----2D----2D----2D----2D

     Initial potential from superposition of free atoms

     starting charge    7.98607, renormalised to    8.00000

     negative rho (up, down):  8.576E-05 0.000E+00
     Starting wfcs are random

     total cpu time spent up to now is        0.1 secs

     Self-consistent Calculation

     iteration #  1     ecut=    50.00 Ry     beta= 0.70
     Davidson diagonalization with overlap
     ethr =  1.00E-02,  avg # of iterations = 14.0

     negative rho (up, down):  1.326E-06 0.000E+00

     total cpu time spent up to now is        0.5 secs

     total energy              =     -20.60757288 Ry
     estimated scf accuracy    <       1.53521907 Ry

     iteration #  2     ecut=    50.00 Ry     beta= 0.70
     Davidson diagonalization with overlap
     ethr =  1.00E-02,  avg # of iterations =  3.9

     total cpu time spent up to now is        0.6 secs

     total energy              =     -20.86671677 Ry
     estimated scf accuracy    <       0.02048771 Ry

     iteration #  3     ecut=    50.00 Ry     beta= 0.70
     Davidson diagonalization with overlap
     ethr =  2.56E-04,  avg # of iterations =  5.6

     total cpu time spent up to now is        0.7 secs

     total energy              =     -20.87146848 Ry
     estimated scf accuracy    <       0.00149881 Ry

     iteration #  4     ecut=    50.00 Ry     beta= 0.70
     Davidson diagonalization with overlap
     ethr =  1.87E-05,  avg # of iterations =  6.4

     total cpu time spent up to now is        0.9 secs

     total energy              =     -20.87717959 Ry
     estimated scf accuracy    <       0.00140319 Ry

     iteration #  5     ecut=    50.00 Ry     beta= 0.70
     Davidson diagonalization with overlap
     ethr =  1.75E-05,  avg # of iterations =  5.4

     negative rho (up, down):  9.370E-08 0.000E+00

     total cpu time spent up to now is        1.0 secs

     total energy              =     -20.87755994 Ry
     estimated scf accuracy    <       0.00017789 Ry

     iteration #  6     ecut=    50.00 Ry     beta= 0.70
     Davidson diagonalization with overlap
     c_bands:  1 eigenvalues not converged
     ethr =  2.22E-06,  avg # of iterations =  7.4

     total cpu time spent up to now is        1.2 secs

     total energy              =     -20.87736007 Ry
     estimated scf accuracy    <       0.00102511 Ry

     iteration #  7     ecut=    50.00 Ry     beta= 0.70
     Davidson diagonalization with overlap
     ethr =  2.22E-06,  avg # of iterations =  6.3

     total cpu time spent up to now is        1.4 secs

     total energy              =     -20.87754305 Ry
     estimated scf accuracy    <       0.00003055 Ry

     iteration #  8     ecut=    50.00 Ry     beta= 0.70
     Davidson diagonalization with overlap
     ethr =  3.82E-07,  avg # of iterations =  2.0

     total cpu time spent up to now is        1.5 secs

     total energy              =     -20.87755174 Ry
     estimated scf accuracy    <       0.00000920 Ry

     iteration #  9     ecut=    50.00 Ry     beta= 0.70
     Davidson diagonalization with overlap
     ethr =  1.15E-07,  avg # of iterations =  1.1

     total cpu time spent up to now is        1.5 secs

     total energy              =     -20.87755303 Ry
     estimated scf accuracy    <       0.00000008 Ry

     iteration # 10     ecut=    50.00 Ry     beta= 0.70
     Davidson diagonalization with overlap
     ethr =  9.79E-10,  avg # of iterations =  2.3

     total cpu time spent up to now is        1.6 secs

     total energy              =     -20.87755302 Ry
     estimated scf accuracy    <       0.00000006 Ry

     iteration # 11     ecut=    50.00 Ry     beta= 0.70
     Davidson diagonalization with overlap
     ethr =  8.11E-10,  avg # of iterations =  1.5

     total cpu time spent up to now is        1.7 secs

     End of self-consistent calculation

          k = 0.0000 0.0000 0.0000 (  2311 PWs)   bands (ev):

   -30.1154 -18.7620  -2.1136  -1.8866  -1.2770   0.0170   0.4585   1.7530

          k = 0.0000 0.0770 0.0000 (  2315 PWs)   bands (ev):

   -29.9495 -18.4863  -2.6630  -2.5292  -1.8271  -0.9858   0.3045   0.7500

          k = 0.0000 0.1540 0.0000 (  2307 PWs)   bands (ev):

   -29.4563 -17.6646  -4.6841  -4.0564  -0.9743  -0.1129   1.1712   1.6239

          k = 0.0000 0.2309 0.0000 (  2283 PWs)   bands (ev):

   -28.6493 -16.3009  -7.3716  -5.8521   0.4461   1.3411   2.6177   3.0797

          k = 0.0000 0.3079 0.0000 (  2268 PWs)   bands (ev):

   -27.5555 -14.4158 -10.2607  -7.5223   2.4311   3.3719   4.6431   5.1136

          k = 0.0000 0.3849 0.0000 (  2278 PWs)   bands (ev):

   -26.2319 -13.0524 -12.0446  -8.8753   4.9764   5.9432   7.2461   7.6648

          k = 0.0000 0.4619 0.0000 (  2246 PWs)   bands (ev):

   -24.8015 -15.4986  -9.8059  -9.3065   4.5403   8.0766   9.2561  10.4261

          k = 0.0000 0.5389 0.0000 (  2278 PWs)   bands (ev):

   -23.6545 -17.1690 -10.2875  -6.7502   1.0747  11.7198  13.0011  14.1792

          k = 0.0667 0.1155 0.0000 (  2311 PWs)   bands (ev):

   -29.6200 -17.9374  -3.8866  -3.7766  -1.2555  -0.4037   0.8825   1.3327

          k = 0.0667 0.1925 0.0000 (  2295 PWs)   bands (ev):

   -28.9698 -16.8447  -6.1250  -5.5006  -0.1171   0.7598   2.0403   2.4976

          k = 0.0667 0.2694 0.0000 (  2272 PWs)   bands (ev):

   -28.0185 -15.2188  -8.8724  -7.2036   1.5864   2.5029   3.7769   4.2432

          k = 0.0667 0.3464 0.0000 (  2273 PWs)   bands (ev):

   -26.8063 -13.0846 -11.6890  -8.6790   3.8521   4.8166   6.0914   6.5603

          k = 0.0667 0.4234 0.0000 (  2269 PWs)   bands (ev):

   -25.4130 -14.3042 -10.5074  -9.7915   6.6501   6.6751   7.9224   8.9831

          k = 0.0667 0.5004 0.0000 (  2281 PWs)   bands (ev):

   -24.0540 -16.4213 -10.4814  -7.7212   2.6882  10.0474  11.2588  12.4507

          k = 0.0667 0.5774 0.0000 (  2288 PWs)   bands (ev):

   -23.3775 -17.3542 -10.7146  -6.0313   0.5375  13.8453  14.0708  15.2378

          k = 0.1333 0.2309 0.0000 (  2291 PWs)   bands (ev):

   -28.1749 -15.4896  -7.8802  -7.6148   1.3085   2.2128   3.4893   3.9527

          k = 0.1333 0.3079 0.0000 (  2268 PWs)   bands (ev):

   -27.1021 -13.6098 -10.4124  -9.1657   3.2961   4.2432   5.5162   5.9865

          k = 0.1333 0.3849 0.0000 (  2266 PWs)   bands (ev):

   -25.8051 -13.0053 -11.2488 -10.3782   5.8414   6.8168   8.1200   8.5141

          k = 0.1333 0.4619 0.0000 (  2274 PWs)   bands (ev):

   -24.4132 -15.3176 -11.2218  -8.5152   4.8050   8.9374  10.0768  11.2996

          k = 0.1333 0.5389 0.0000 (  2300 PWs)   bands (ev):

   -23.3088 -16.8995 -11.6552  -5.9305   1.3986  12.5708  13.7962  15.0524

          k = 0.2000 0.3464 0.0000 (  2262 PWs)   bands (ev):

   -25.9404 -12.1003 -11.4979 -11.0516   5.5650   6.5560   7.8329   8.3048

          k = 0.2000 0.4234 0.0000 (  2271 PWs)   bands (ev):

   -24.6192 -14.1528 -12.2229  -8.9444   6.6416   8.3843   9.4368  10.7248

          k = 0.2000 0.5004 0.0000 (  2291 PWs)   bands (ev):

   -23.3573 -15.9708 -12.8679  -6.1475   3.0064  11.7403  12.7696  14.1893

          k = 0.2000 0.5774 0.0000 (  2306 PWs)   bands (ev):

   -22.7454 -16.7816 -13.0794  -4.3542   0.9045  14.9069  15.5832  15.6231

          k = 0.2667 0.4619 0.0000 (  2284 PWs)   bands (ev):

   -23.3909 -15.2107 -13.7211  -6.2600   3.9207  11.4631  12.2799  13.9013

          k = 0.2667 0.5389 0.0000 (  2281 PWs)   bands (ev):

   -22.4730 -16.1156 -14.4260  -3.5557   1.1647  12.8637  15.0443  16.7388

          k = 0.3333 0.5774 0.0000 (  2268 PWs)   bands (ev):

   -22.1096 -15.5926 -15.5926  -1.0208  -1.0208  11.9510  18.6876  18.6877

     the Fermi energy is    -1.8472 ev

!    total energy              =     -20.87755303 Ry
     estimated scf accuracy    <          2.1E-09 Ry
     smearing contrib. (-TS)   =      -0.00007815 Ry
     internal energy E=F+TS    =     -20.87747488 Ry

     The total energy is F=E-TS. E is the sum of the following terms:
     one-electron contribution =    -778.81762544 Ry
     hartree contribution      =     390.85667542 Ry
     xc contribution           =      -8.81846414 Ry
     ewald contribution        =     375.90193928 Ry

     convergence has been achieved in  11 iterations

     Forces acting on atoms (cartesian axes, Ry/au):

     atom    1 type  1   force =     0.00000000    0.00000000    0.00000000
     atom    2 type  1   force =    -0.00000000   -0.00000000    0.00000000

     Total force =     0.000000     Total SCF correction =     0.000000


     Computing stress (Cartesian axis) and pressure

          total   stress  (Ry/bohr**3)                   (kbar)     P=     1691.46
   0.01741963  -0.00000000   0.00000000         2562.52       -0.00        0.00
  -0.00000000   0.01741963  -0.00000000           -0.00     2562.52       -0.00
   0.00000000   0.00000000  -0.00034425            0.00        0.00      -50.64


     Writing output data file ./work/LiC330.save/
 
     init_run     :      0.07s CPU      0.09s WALL (       1 calls)
     electrons    :      1.48s CPU      1.63s WALL (       1 calls)
     forces       :      0.00s CPU      0.01s WALL (       1 calls)
     stress       :      0.01s CPU      0.01s WALL (       1 calls)

     Called by init_run:
     wfcinit      :      0.04s CPU      0.05s WALL (       1 calls)
     potinit      :      0.03s CPU      0.03s WALL (       1 calls)
     hinit0       :      0.00s CPU      0.00s WALL (       1 calls)

     Called by electrons:
     c_bands      :      1.30s CPU      1.42s WALL (      11 calls)
     sum_band     :      0.16s CPU      0.17s WALL (      11 calls)
     v_of_rho     :      0.01s CPU      0.02s WALL (      12 calls)
     mix_rho      :      0.00s CPU      0.00s WALL (      11 calls)

     Called by c_bands:
     init_us_2    :      0.01s CPU      0.01s WALL (     675 calls)
     cegterg      :      1.27s CPU      1.39s WALL (     297 calls)

     Called by *egterg:
     cdiaghg      :      0.16s CPU      0.17s WALL (    1806 calls)
     h_psi        :      1.04s CPU      1.15s WALL (    1833 calls)
     g_psi        :      0.00s CPU      0.00s WALL (    1509 calls)

     Called by h_psi:
     h_psi:calbec :      0.03s CPU      0.04s WALL (    1833 calls)
     vloc_psi     :      0.99s CPU      1.08s WALL (    1833 calls)
     add_vuspsi   :      0.01s CPU      0.01s WALL (    1833 calls)

     General routines
     calbec       :      0.03s CPU      0.03s WALL (    1968 calls)
     fft          :      0.01s CPU      0.02s WALL (     127 calls)
     ffts         :      0.00s CPU      0.00s WALL (      11 calls)
     fftw         :      1.07s CPU      1.18s WALL (   20314 calls)
 
     Parallel routines
     fft_scatt_xy :      0.06s CPU      0.06s WALL (   20452 calls)
     fft_scatt_yz :      0.50s CPU      0.55s WALL (   20452 calls)
 
     PWSCF        :      1.61s CPU      1.94s WALL

 
   This run was terminated on:  10:37:21  22Jan2024            

=------------------------------------------------------------------------------=
   JOB DONE.
=------------------------------------------------------------------------------=
