
     Program PWSCF v.6.7MaX starts on 22Jan2024 at 10:37:17 

     This program is part of the open-source Quantum ESPRESSO suite
     for quantum simulation of materials; please cite
         "P. Giannozzi et al., J. Phys.:Condens. Matter 21 395502 (2009);
         "P. Giannozzi et al., J. Phys.:Condens. Matter 29 465901 (2017);
          URL http://www.quantum-espresso.org", 
     in publications or presentations arising from this work. More details at
     http://www.quantum-espresso.org/quote

     Parallel version (MPI), running on    32 processors

     MPI processes distributed on     1 nodes
     R & G space division:  proc/nbgrp/npool/nimage =      32
     Waiting for input...
     Reading input from standard input
Warning: card &CELL ignored
Warning: card  CELL_DYNAMICS = 'BFGS', ignored
Warning: card  PRESS = 0.0, ignored
Warning: card  PRESS_CONV_THR = 1D-3, ignored
Warning: card  CELL_DOFREE='2DXY' ignored
Warning: card / ignored

     Current dimensions of program PWSCF are:
     Max number of different atomic species (ntypx) = 10
     Max number of k-points (npk) =  40000
     Max angular momentum in pseudopotentials (lmaxx) =  3
     Message from routine read_pp_mesh:
     mesh size missing, using the one in header

     Subspace diagonalization in iterative solution of the eigenvalue problem:
     a serial algorithm will be used

 
     Parallelization info
     --------------------
     sticks:   dense  smooth     PW     G-vecs:    dense   smooth      PW
     Min           4       4      1                  522      522      95
     Max           5       5      2                  563      563     138
     Sum         139     139     55                17061    17061    3631
 


     bravais-lattice index     =            4
     lattice parameter (alat)  =       3.2000  a.u.
     unit-cell volume          =     359.1581 (a.u.)^3
     number of atoms/cell      =            2
     number of atomic types    =            1
     number of electrons       =         8.00
     number of Kohn-Sham states=            8
     kinetic-energy cutoff     =      50.0000  Ry
     charge density cutoff     =     200.0000  Ry
     scf convergence threshold =      1.0E-08
     mixing beta               =       0.7000
     number of iterations used =            8  plain     mixing
     Exchange-correlation= PBE
                           (   1   4   3   4   0   0   0)

     celldm(1)=   3.200000  celldm(2)=   0.000000  celldm(3)=  12.656250
     celldm(4)=   0.000000  celldm(5)=   0.000000  celldm(6)=   0.000000

     crystal axes: (cart. coord. in units of alat)
               a(1) = (   1.000000   0.000000   0.000000 )  
               a(2) = (  -0.500000   0.866025   0.000000 )  
               a(3) = (   0.000000   0.000000  12.656250 )  

     reciprocal axes: (cart. coord. in units 2 pi/alat)
               b(1) = (  1.000000  0.577350  0.000000 )  
               b(2) = (  0.000000  1.154701  0.000000 )  
               b(3) = (  0.000000  0.000000  0.079012 )  


     PseudoPot. # 1 for C  read from file:
     /home/yhkim/qe-6.7/pseudo/ONCV1/1.2/C_ONCV_PBE-1.2.upf
     MD5 check sum: 1a5f83a7b1f58d24996abe00ed223ac6
     Pseudo is Norm-conserving, Zval =  4.0
     Generated using ONCVPSP code by D. R. Hamann
     Using radial grid of  602 points,  4 beta functions with: 
                l(1) =   0
                l(2) =   0
                l(3) =   1
                l(4) =   1

     atomic species   valence    mass     pseudopotential
        C              4.00    12.01070     C ( 1.00)

     24 Sym. Ops., with inversion, found



   Cartesian axes

     site n.     atom                  positions (alat units)
         1           C   tau(   1) = (  -0.0000000   0.5773503   6.3281250  )
         2           C   tau(   2) = (   0.5000000   0.2886751   6.3281250  )

     number of k points=    27  Methfessel-Paxton smearing, width (Ry)=  0.0100
                       cart. coord. in units 2pi/alat
        k(    1) = (   0.0000000   0.0000000   0.0000000), wk =   0.0088889
        k(    2) = (   0.0000000   0.0769800   0.0000000), wk =   0.0533333
        k(    3) = (   0.0000000   0.1539601   0.0000000), wk =   0.0533333
        k(    4) = (   0.0000000   0.2309401   0.0000000), wk =   0.0533333
        k(    5) = (   0.0000000   0.3079201   0.0000000), wk =   0.0533333
        k(    6) = (   0.0000000   0.3849002   0.0000000), wk =   0.0533333
        k(    7) = (   0.0000000   0.4618802   0.0000000), wk =   0.0533333
        k(    8) = (   0.0000000   0.5388603   0.0000000), wk =   0.0533333
        k(    9) = (   0.0666667   0.1154701   0.0000000), wk =   0.0533333
        k(   10) = (   0.0666667   0.1924501   0.0000000), wk =   0.1066667
        k(   11) = (   0.0666667   0.2694301   0.0000000), wk =   0.1066667
        k(   12) = (   0.0666667   0.3464102   0.0000000), wk =   0.1066667
        k(   13) = (   0.0666667   0.4233902   0.0000000), wk =   0.1066667
        k(   14) = (   0.0666667   0.5003702   0.0000000), wk =   0.1066667
        k(   15) = (   0.0666667   0.5773503   0.0000000), wk =   0.0533333
        k(   16) = (   0.1333333   0.2309401   0.0000000), wk =   0.0533333
        k(   17) = (   0.1333333   0.3079201   0.0000000), wk =   0.1066667
        k(   18) = (   0.1333333   0.3849002   0.0000000), wk =   0.1066667
        k(   19) = (   0.1333333   0.4618802   0.0000000), wk =   0.1066667
        k(   20) = (   0.1333333   0.5388603   0.0000000), wk =   0.1066667
        k(   21) = (   0.2000000   0.3464102   0.0000000), wk =   0.0533333
        k(   22) = (   0.2000000   0.4233902   0.0000000), wk =   0.1066667
        k(   23) = (   0.2000000   0.5003702   0.0000000), wk =   0.1066667
        k(   24) = (   0.2000000   0.5773503   0.0000000), wk =   0.0533333
        k(   25) = (   0.2666667   0.4618802   0.0000000), wk =   0.0533333
        k(   26) = (   0.2666667   0.5388603   0.0000000), wk =   0.1066667
        k(   27) = (   0.3333333   0.5773503   0.0000000), wk =   0.0177778

     Dense  grid:    17061 G-vectors     FFT dimensions: (  15,  15, 192)

     Estimated max dynamical RAM per process >       0.93 MB

     Estimated total dynamical RAM >      29.71 MB
 ----2D----2D----2D----2D----2D----2D----2D----2D----2D----2D----2D----2D
  The code is running with the 2D cutoff
  Please refer to:
  Sohier, T., Calandra, M., & Mauri, F. (2017), 
  Density functional perturbation theory for gated two-dimensional heterostructu
 res:
  Theoretical developments and application to flexural phonons in graphene.
  Physical Review B, 96(7), 75448. https://doi.org/10.1103/PhysRevB.96.075448
 ----2D----2D----2D----2D----2D----2D----2D----2D----2D----2D----2D----2D

     Initial potential from superposition of free atoms

     starting charge    7.98607, renormalised to    8.00000

     negative rho (up, down):  7.844E-05 0.000E+00
     Starting wfcs are random

     total cpu time spent up to now is        0.1 secs

     Self-consistent Calculation

     iteration #  1     ecut=    50.00 Ry     beta= 0.70
     Davidson diagonalization with overlap
     ethr =  1.00E-02,  avg # of iterations = 13.9

     negative rho (up, down):  1.133E-06 0.000E+00

     total cpu time spent up to now is        0.5 secs

     total energy              =     -20.12141472 Ry
     estimated scf accuracy    <       1.83184270 Ry

     iteration #  2     ecut=    50.00 Ry     beta= 0.70
     Davidson diagonalization with overlap
     ethr =  1.00E-02,  avg # of iterations =  4.3

     total cpu time spent up to now is        0.6 secs

     total energy              =     -20.40481104 Ry
     estimated scf accuracy    <       0.05418889 Ry

     iteration #  3     ecut=    50.00 Ry     beta= 0.70
     Davidson diagonalization with overlap
     ethr =  6.77E-04,  avg # of iterations =  4.0

     total cpu time spent up to now is        0.7 secs

     total energy              =     -20.42690660 Ry
     estimated scf accuracy    <       0.02795840 Ry

     iteration #  4     ecut=    50.00 Ry     beta= 0.70
     Davidson diagonalization with overlap
     ethr =  3.49E-04,  avg # of iterations =  3.9

     total cpu time spent up to now is        0.8 secs

     total energy              =     -20.42969136 Ry
     estimated scf accuracy    <       0.00151785 Ry

     iteration #  5     ecut=    50.00 Ry     beta= 0.70
     Davidson diagonalization with overlap
     ethr =  1.90E-05,  avg # of iterations =  7.0

     total cpu time spent up to now is        1.0 secs

     total energy              =     -20.42997295 Ry
     estimated scf accuracy    <       0.00008541 Ry

     iteration #  6     ecut=    50.00 Ry     beta= 0.70
     Davidson diagonalization with overlap
     c_bands:  1 eigenvalues not converged
     ethr =  1.07E-06,  avg # of iterations =  5.5

     total cpu time spent up to now is        1.1 secs

     total energy              =     -20.42999008 Ry
     estimated scf accuracy    <       0.00004795 Ry

     iteration #  7     ecut=    50.00 Ry     beta= 0.70
     Davidson diagonalization with overlap
     ethr =  5.99E-07,  avg # of iterations =  1.8

     total cpu time spent up to now is        1.2 secs

     total energy              =     -20.43000077 Ry
     estimated scf accuracy    <       0.00002391 Ry

     iteration #  8     ecut=    50.00 Ry     beta= 0.70
     Davidson diagonalization with overlap
     ethr =  2.99E-07,  avg # of iterations =  1.3

     total cpu time spent up to now is        1.3 secs

     total energy              =     -20.43000437 Ry
     estimated scf accuracy    <       0.00000029 Ry

     iteration #  9     ecut=    50.00 Ry     beta= 0.70
     Davidson diagonalization with overlap
     ethr =  3.62E-09,  avg # of iterations =  2.2

     total cpu time spent up to now is        1.4 secs

     total energy              =     -20.43000429 Ry
     estimated scf accuracy    <       0.00000038 Ry

     iteration # 10     ecut=    50.00 Ry     beta= 0.70
     Davidson diagonalization with overlap
     ethr =  3.62E-09,  avg # of iterations =  1.1

     total cpu time spent up to now is        1.5 secs

     total energy              =     -20.43000438 Ry
     estimated scf accuracy    <       0.00000010 Ry

     iteration # 11     ecut=    50.00 Ry     beta= 0.70
     Davidson diagonalization with overlap
     ethr =  1.19E-09,  avg # of iterations =  1.0

     total cpu time spent up to now is        1.5 secs

     End of self-consistent calculation

          k = 0.0000 0.0000 0.0000 (  2215 PWs)   bands (ev):

   -31.0855 -20.0575  -2.4383  -1.5330  -1.5071  -0.0519   0.3955   1.7176

          k = 0.0000 0.0770 0.0000 (  2205 PWs)   bands (ev):

   -30.9164 -19.7645  -2.3628  -2.1998  -2.0972  -1.2235   0.2535   0.7054

          k = 0.0000 0.1540 0.0000 (  2180 PWs)   bands (ev):

   -30.4144 -18.8848  -4.4762  -3.8642  -1.2204  -0.2951   1.1752   1.6352

          k = 0.0000 0.2309 0.0000 (  2180 PWs)   bands (ev):

   -29.5982 -17.4305  -7.3024  -5.8088   0.2858   1.2508   2.7129   3.1837

          k = 0.0000 0.3079 0.0000 (  2148 PWs)   bands (ev):

   -28.5018 -15.4119 -10.2918  -7.6086   2.3919   3.4104   4.8656   5.3481

          k = 0.0000 0.3849 0.0000 (  2148 PWs)   bands (ev):

   -27.1922 -13.1344 -12.8744  -9.0660   5.0926   6.1452   7.6321   8.0703

          k = 0.0000 0.4619 0.0000 (  2122 PWs)   bands (ev):

   -25.8172 -15.5613 -10.0675  -9.9342   4.7889   8.3814   9.6739  11.0115

          k = 0.0000 0.5389 0.0000 (  2138 PWs)   bands (ev):

   -24.7819 -17.1334 -10.5836  -7.1714   1.0398  12.2434  13.6528  14.9975

          k = 0.0667 0.1155 0.0000 (  2191 PWs)   bands (ev):

   -30.5807 -19.1786  -3.6165  -3.5721  -1.5160  -0.6045   0.8683   1.3253

          k = 0.0667 0.1925 0.0000 (  2169 PWs)   bands (ev):

   -29.9215 -18.0108  -6.0169  -5.3918  -0.3106   0.6327   2.0993   2.5645

          k = 0.0667 0.2694 0.0000 (  2167 PWs)   bands (ev):

   -28.9645 -16.2730  -8.8844  -7.2234   1.4964   2.4862   3.9451   4.4217

          k = 0.0667 0.3464 0.0000 (  2149 PWs)   bands (ev):

   -27.7576 -13.9894 -11.7705  -8.8053   3.9003   4.9463   6.4051   6.8878

          k = 0.0667 0.4234 0.0000 (  2130 PWs)   bands (ev):

   -26.3977 -14.3968 -11.2260 -10.0007   6.8954   7.0348   8.2910   9.4783

          k = 0.0667 0.5004 0.0000 (  2127 PWs)   bands (ev):

   -25.1313 -16.4430 -10.7389  -8.2269   2.7975  10.4720  11.8009  13.1629

          k = 0.0667 0.5774 0.0000 (  2112 PWs)   bands (ev):

   -24.5396 -17.2939 -10.9888  -6.3827   0.4613  14.4616  14.7789  16.0253

          k = 0.1333 0.2309 0.0000 (  2177 PWs)   bands (ev):

   -29.1213 -16.5602  -7.9729  -7.5149   1.2024   2.1779   3.6397   4.1127

          k = 0.1333 0.3079 0.0000 (  2159 PWs)   bands (ev):

   -28.0501 -14.5506 -10.5492  -9.1943   3.3115   4.3368   5.7941   6.2766

          k = 0.1333 0.3849 0.0000 (  2144 PWs)   bands (ev):

   -26.7773 -13.1507 -12.0218 -10.4998   6.0120   7.0745   8.5614   8.9838

          k = 0.1333 0.4619 0.0000 (  2139 PWs)   bands (ev):

   -25.4602 -15.4108 -11.4053  -9.0896   5.1105   9.2959  10.5446  11.9402

          k = 0.1333 0.5389 0.0000 (  2102 PWs)   bands (ev):

   -24.4698 -16.8747 -11.8651  -6.2925   1.4234  13.1497  14.4974  15.9273

          k = 0.2000 0.3464 0.0000 (  2154 PWs)   bands (ev):

   -26.9093 -12.3558 -12.2898 -11.0507   5.7194   6.7956   8.2565   8.7435

          k = 0.2000 0.4234 0.0000 (  2150 PWs)   bands (ev):

   -25.6512 -14.3530 -12.2881  -9.5525   7.1470   8.7104   9.8604  11.3298

          k = 0.2000 0.5004 0.0000 (  2122 PWs)   bands (ev):

   -24.5059 -16.0360 -12.9841  -6.5425   3.2188  12.2705  13.3957  15.0116

          k = 0.2000 0.5774 0.0000 (  2090 PWs)   bands (ev):

   -23.9846 -16.7440 -13.2107  -4.5922   0.9336  15.6060  16.3218  16.4162

          k = 0.2667 0.4619 0.0000 (  2120 PWs)   bands (ev):

   -24.5319 -15.3811 -13.7304  -6.6696   4.2542  11.9772  12.8473  14.7025

          k = 0.2667 0.5389 0.0000 (  2113 PWs)   bands (ev):

   -23.7528 -16.1322 -14.4678  -3.7537   1.2839  13.3195  15.7762  17.6237

          k = 0.3333 0.5774 0.0000 (  2118 PWs)   bands (ev):

   -23.4584 -15.5916 -15.5916  -1.0295  -1.0295  12.2942  19.6556  19.6556

     the Fermi energy is    -2.0956 ev

!    total energy              =     -20.43000438 Ry
     estimated scf accuracy    <          8.5E-09 Ry
     smearing contrib. (-TS)   =      -0.00005703 Ry
     internal energy E=F+TS    =     -20.42994735 Ry

     The total energy is F=E-TS. E is the sum of the following terms:
     one-electron contribution =    -828.83560762 Ry
     hartree contribution      =     415.84737791 Ry
     xc contribution           =      -9.00325808 Ry
     ewald contribution        =     401.56154045 Ry

     convergence has been achieved in  11 iterations

     Forces acting on atoms (cartesian axes, Ry/au):

     atom    1 type  1   force =     0.00000000    0.00000000    0.00000000
     atom    2 type  1   force =     0.00000000    0.00000000    0.00000000

     Total force =     0.000000     Total SCF correction =     0.000000


     Computing stress (Cartesian axis) and pressure

          total   stress  (Ry/bohr**3)                   (kbar)     P=     2067.24
   0.02127944   0.00000000   0.00000000         3130.31        0.00        0.00
   0.00000000   0.02127944  -0.00000000            0.00     3130.31       -0.00
   0.00000000  -0.00000000  -0.00040042            0.00       -0.00      -58.90


     Writing output data file ./work/LiC320.save/
 
     init_run     :      0.07s CPU      0.08s WALL (       1 calls)
     electrons    :      1.30s CPU      1.45s WALL (       1 calls)
     forces       :      0.00s CPU      0.01s WALL (       1 calls)
     stress       :      0.01s CPU      0.01s WALL (       1 calls)

     Called by init_run:
     wfcinit      :      0.04s CPU      0.05s WALL (       1 calls)
     potinit      :      0.02s CPU      0.03s WALL (       1 calls)
     hinit0       :      0.00s CPU      0.00s WALL (       1 calls)

     Called by electrons:
     c_bands      :      1.13s CPU      1.25s WALL (      11 calls)
     sum_band     :      0.15s CPU      0.16s WALL (      11 calls)
     v_of_rho     :      0.01s CPU      0.02s WALL (      12 calls)
     mix_rho      :      0.00s CPU      0.00s WALL (      11 calls)

     Called by c_bands:
     init_us_2    :      0.01s CPU      0.01s WALL (     675 calls)
     cegterg      :      1.11s CPU      1.22s WALL (     297 calls)

     Called by *egterg:
     cdiaghg      :      0.13s CPU      0.14s WALL (    1537 calls)
     h_psi        :      0.93s CPU      1.02s WALL (    1564 calls)
     g_psi        :      0.00s CPU      0.00s WALL (    1240 calls)

     Called by h_psi:
     h_psi:calbec :      0.03s CPU      0.03s WALL (    1564 calls)
     vloc_psi     :      0.88s CPU      0.97s WALL (    1564 calls)
     add_vuspsi   :      0.01s CPU      0.01s WALL (    1564 calls)

     General routines
     calbec       :      0.02s CPU      0.03s WALL (    1699 calls)
     fft          :      0.02s CPU      0.02s WALL (     127 calls)
     ffts         :      0.00s CPU      0.00s WALL (      11 calls)
     fftw         :      0.96s CPU      1.06s WALL (   18390 calls)
 
     Parallel routines
     fft_scatt_xy :      0.05s CPU      0.05s WALL (   18528 calls)
     fft_scatt_yz :      0.45s CPU      0.50s WALL (   18528 calls)
 
     PWSCF        :      1.43s CPU      1.73s WALL

 
   This run was terminated on:  10:37:19  22Jan2024            

=------------------------------------------------------------------------------=
   JOB DONE.
=------------------------------------------------------------------------------=
