
     Program PWSCF v.6.7MaX starts on 22Jan2024 at 11: 1:14 

     This program is part of the open-source Quantum ESPRESSO suite
     for quantum simulation of materials; please cite
         "P. Giannozzi et al., J. Phys.:Condens. Matter 21 395502 (2009);
         "P. Giannozzi et al., J. Phys.:Condens. Matter 29 465901 (2017);
          URL http://www.quantum-espresso.org", 
     in publications or presentations arising from this work. More details at
     http://www.quantum-espresso.org/quote

     Parallel version (MPI), running on    32 processors

     MPI processes distributed on     1 nodes
     R & G space division:  proc/nbgrp/npool/nimage =      32
     Waiting for input...
     Reading input from standard input
Warning: card &CELL ignored
Warning: card  CELL_DYNAMICS = 'BFGS', ignored
Warning: card  PRESS = 0.0, ignored
Warning: card  PRESS_CONV_THR = 1D-3, ignored
Warning: card  CELL_DOFREE='2DXY' ignored
Warning: card / ignored

     Current dimensions of program PWSCF are:
     Max number of different atomic species (ntypx) = 10
     Max number of k-points (npk) =  40000
     Max angular momentum in pseudopotentials (lmaxx) =  3
     Message from routine read_pp_mesh:
     mesh size missing, using the one in header

     Subspace diagonalization in iterative solution of the eigenvalue problem:
     a serial algorithm will be used

 
     Parallelization info
     --------------------
     sticks:   dense  smooth     PW     G-vecs:    dense   smooth      PW
     Min           9       9      2                 1151     1151     170
     Max          10      10      3                 1190     1190     221
     Sum         313     313     91                37479    37479    6541
 


     bravais-lattice index     =            4
     lattice parameter (alat)  =       4.7200  a.u.
     unit-cell volume          =     781.3932 (a.u.)^3
     number of atoms/cell      =            2
     number of atomic types    =            1
     number of electrons       =         8.00
     number of Kohn-Sham states=            8
     kinetic-energy cutoff     =      50.0000  Ry
     charge density cutoff     =     200.0000  Ry
     scf convergence threshold =      1.0E-08
     mixing beta               =       0.7000
     number of iterations used =            8  plain     mixing
     Exchange-correlation= PBE
                           (   1   4   3   4   0   0   0)

     celldm(1)=   4.720000  celldm(2)=   0.000000  celldm(3)=   8.580508
     celldm(4)=   0.000000  celldm(5)=   0.000000  celldm(6)=   0.000000

     crystal axes: (cart. coord. in units of alat)
               a(1) = (   1.000000   0.000000   0.000000 )  
               a(2) = (  -0.500000   0.866025   0.000000 )  
               a(3) = (   0.000000   0.000000   8.580508 )  

     reciprocal axes: (cart. coord. in units 2 pi/alat)
               b(1) = (  1.000000  0.577350  0.000000 )  
               b(2) = (  0.000000  1.154701  0.000000 )  
               b(3) = (  0.000000  0.000000  0.116543 )  


     PseudoPot. # 1 for C  read from file:
     /home/yhkim/qe-6.7/pseudo/ONCV1/1.2/C_ONCV_PBE-1.2.upf
     MD5 check sum: 1a5f83a7b1f58d24996abe00ed223ac6
     Pseudo is Norm-conserving, Zval =  4.0
     Generated using ONCVPSP code by D. R. Hamann
     Using radial grid of  602 points,  4 beta functions with: 
                l(1) =   0
                l(2) =   0
                l(3) =   1
                l(4) =   1

     atomic species   valence    mass     pseudopotential
        C              4.00    12.01070     C ( 1.00)

     24 Sym. Ops., with inversion, found



   Cartesian axes

     site n.     atom                  positions (alat units)
         1           C   tau(   1) = (  -0.0000000   0.5773503   4.2902542  )
         2           C   tau(   2) = (   0.5000000   0.2886751   4.2902542  )

     number of k points=    27  Methfessel-Paxton smearing, width (Ry)=  0.0100
                       cart. coord. in units 2pi/alat
        k(    1) = (   0.0000000   0.0000000   0.0000000), wk =   0.0088889
        k(    2) = (   0.0000000   0.0769800   0.0000000), wk =   0.0533333
        k(    3) = (   0.0000000   0.1539601   0.0000000), wk =   0.0533333
        k(    4) = (   0.0000000   0.2309401   0.0000000), wk =   0.0533333
        k(    5) = (   0.0000000   0.3079201   0.0000000), wk =   0.0533333
        k(    6) = (   0.0000000   0.3849002   0.0000000), wk =   0.0533333
        k(    7) = (   0.0000000   0.4618802   0.0000000), wk =   0.0533333
        k(    8) = (   0.0000000   0.5388603   0.0000000), wk =   0.0533333
        k(    9) = (   0.0666667   0.1154701   0.0000000), wk =   0.0533333
        k(   10) = (   0.0666667   0.1924501   0.0000000), wk =   0.1066667
        k(   11) = (   0.0666667   0.2694301   0.0000000), wk =   0.1066667
        k(   12) = (   0.0666667   0.3464102   0.0000000), wk =   0.1066667
        k(   13) = (   0.0666667   0.4233902   0.0000000), wk =   0.1066667
        k(   14) = (   0.0666667   0.5003702   0.0000000), wk =   0.1066667
        k(   15) = (   0.0666667   0.5773503   0.0000000), wk =   0.0533333
        k(   16) = (   0.1333333   0.2309401   0.0000000), wk =   0.0533333
        k(   17) = (   0.1333333   0.3079201   0.0000000), wk =   0.1066667
        k(   18) = (   0.1333333   0.3849002   0.0000000), wk =   0.1066667
        k(   19) = (   0.1333333   0.4618802   0.0000000), wk =   0.1066667
        k(   20) = (   0.1333333   0.5388603   0.0000000), wk =   0.1066667
        k(   21) = (   0.2000000   0.3464102   0.0000000), wk =   0.0533333
        k(   22) = (   0.2000000   0.4233902   0.0000000), wk =   0.1066667
        k(   23) = (   0.2000000   0.5003702   0.0000000), wk =   0.1066667
        k(   24) = (   0.2000000   0.5773503   0.0000000), wk =   0.0533333
        k(   25) = (   0.2666667   0.4618802   0.0000000), wk =   0.0533333
        k(   26) = (   0.2666667   0.5388603   0.0000000), wk =   0.1066667
        k(   27) = (   0.3333333   0.5773503   0.0000000), wk =   0.0177778

     Dense  grid:    37479 G-vectors     FFT dimensions: (  24,  24, 192)

     Estimated max dynamical RAM per process >       1.67 MB

     Estimated total dynamical RAM >      53.46 MB
 ----2D----2D----2D----2D----2D----2D----2D----2D----2D----2D----2D----2D
  The code is running with the 2D cutoff
  Please refer to:
  Sohier, T., Calandra, M., & Mauri, F. (2017), 
  Density functional perturbation theory for gated two-dimensional heterostructu
 res:
  Theoretical developments and application to flexural phonons in graphene.
  Physical Review B, 96(7), 75448. https://doi.org/10.1103/PhysRevB.96.075448
 ----2D----2D----2D----2D----2D----2D----2D----2D----2D----2D----2D----2D

     Initial potential from superposition of free atoms

     starting charge    7.98607, renormalised to    8.00000

     negative rho (up, down):  1.181E-04 0.000E+00
     Starting wfcs are random

     total cpu time spent up to now is        0.1 secs

     Self-consistent Calculation

     iteration #  1     ecut=    50.00 Ry     beta= 0.70
     Davidson diagonalization with overlap
     ethr =  1.00E-02,  avg # of iterations = 11.5

     negative rho (up, down):  9.900E-08 0.000E+00

     total cpu time spent up to now is        0.5 secs

     total energy              =     -22.76236174 Ry
     estimated scf accuracy    <       0.14681500 Ry

     iteration #  2     ecut=    50.00 Ry     beta= 0.70
     Davidson diagonalization with overlap
     ethr =  1.84E-03,  avg # of iterations =  2.4

     total cpu time spent up to now is        0.6 secs

     total energy              =     -22.78823131 Ry
     estimated scf accuracy    <       0.00229390 Ry

     iteration #  3     ecut=    50.00 Ry     beta= 0.70
     Davidson diagonalization with overlap
     ethr =  2.87E-05,  avg # of iterations = 10.0

     total cpu time spent up to now is        0.8 secs

     total energy              =     -22.78950802 Ry
     estimated scf accuracy    <       0.00014013 Ry

     iteration #  4     ecut=    50.00 Ry     beta= 0.70
     Davidson diagonalization with overlap
     c_bands:  1 eigenvalues not converged
     ethr =  1.75E-06,  avg # of iterations =  7.1

     total cpu time spent up to now is        1.0 secs

     total energy              =     -22.78955038 Ry
     estimated scf accuracy    <       0.00000203 Ry

     iteration #  5     ecut=    50.00 Ry     beta= 0.70
     Davidson diagonalization with overlap
     ethr =  2.53E-08,  avg # of iterations =  4.0

     total cpu time spent up to now is        1.2 secs

     total energy              =     -22.78955375 Ry
     estimated scf accuracy    <       0.00000014 Ry

     iteration #  6     ecut=    50.00 Ry     beta= 0.70
     Davidson diagonalization with overlap
     ethr =  1.72E-09,  avg # of iterations =  2.1

     total cpu time spent up to now is        1.3 secs

     End of self-consistent calculation

          k = 0.0000 0.0000 0.0000 (  4687 PWs)   bands (ev):

   -23.5922 -11.7245  -7.4496  -7.4496  -0.9721  -0.2018   0.5896   0.9441

          k = 0.0000 0.0770 0.0000 (  4671 PWs)   bands (ev):

   -23.4899 -11.6021  -7.8665  -7.6619  -0.8331  -0.0609   0.7316   1.0853

          k = 0.0000 0.1540 0.0000 (  4691 PWs)   bands (ev):

   -23.1833 -11.2394  -8.9748  -8.2019  -0.4162   0.3609   1.1569   1.5083

          k = 0.0000 0.2309 0.0000 (  4689 PWs)   bands (ev):

   -22.6746 -10.6419 -10.4915  -8.8808   0.2781   1.0613   1.8659   2.2106

          k = 0.0000 0.3079 0.0000 (  4669 PWs)   bands (ev):

   -21.9683 -12.1835  -9.8265  -9.5413   1.2474   1.9598   2.2904   2.8531

          k = 0.0000 0.3849 0.0000 (  4655 PWs)   bands (ev):

   -21.0724 -13.9078 -10.0928  -8.8226   0.4145   2.4760   3.0034   3.3192

          k = 0.0000 0.4619 0.0000 (  4658 PWs)   bands (ev):

   -20.0047 -15.5640 -10.4825  -7.7186  -1.2644   2.7598   4.0191   4.8433

          k = 0.0000 0.5389 0.0000 (  4676 PWs)   bands (ev):

   -18.8560 -17.0171 -10.6833  -6.7995  -2.4893   2.6509   5.7793   6.6187

          k = 0.0667 0.1155 0.0000 (  4685 PWs)   bands (ev):

   -23.2853 -11.3599  -8.5806  -8.0887  -0.5551   0.2204   1.0151   1.3674

          k = 0.0667 0.1925 0.0000 (  4696 PWs)   bands (ev):

   -22.8777 -10.8795  -9.8068  -8.7863   0.0008   0.7819   1.5826   1.9307

          k = 0.0667 0.2694 0.0000 (  4683 PWs)   bands (ev):

   -22.2703 -11.3538 -10.1718  -9.5159   0.8333   1.6173   2.4330   2.7489

          k = 0.0667 0.3464 0.0000 (  4662 PWs)   bands (ev):

   -21.4689 -13.0317 -10.1536  -9.2578   1.2176   1.9387   2.7581   3.5182

          k = 0.0667 0.4234 0.0000 (  4661 PWs)   bands (ev):

   -20.4853 -14.7073 -10.6404  -8.1885  -0.4997   3.2234   3.4246   4.1421

          k = 0.0667 0.5004 0.0000 (  4672 PWs)   bands (ev):

   -19.3543 -16.2775 -10.9427  -7.1124  -2.0020   3.1525   4.9686   5.7857

          k = 0.0667 0.5774 0.0000 (  4678 PWs)   bands (ev):

   -18.4626 -17.3193 -11.0448  -6.5487  -2.7144   3.0967   6.7625   6.9235

          k = 0.1333 0.2309 0.0000 (  4683 PWs)   bands (ev):

   -22.3712 -10.8920 -10.2878  -9.7105   0.6953   1.4819   2.2920   2.6338

          k = 0.1333 0.3079 0.0000 (  4669 PWs)   bands (ev):

   -21.6685 -12.2569 -10.5862  -9.4783   1.6651   1.7335   2.4619   3.2843

          k = 0.1333 0.3849 0.0000 (  4663 PWs)   bands (ev):

   -20.7783 -13.8066 -11.2436  -8.4830   0.1291   2.9051   3.7049   4.5400

          k = 0.1333 0.4619 0.0000 (  4649 PWs)   bands (ev):

   -19.7198 -15.3726 -11.6774  -7.3782  -1.4342   4.3455   4.5356   5.1963

          k = 0.1333 0.5389 0.0000 (  4660 PWs)   bands (ev):

   -18.5846 -16.7799 -11.8947  -6.4374  -2.6215   4.3457   6.1661   6.8237

          k = 0.2000 0.3464 0.0000 (  4669 PWs)   bands (ev):

   -20.8767 -13.2642 -11.7131  -8.5821   0.3844   2.7692   3.5534   4.4181

          k = 0.2000 0.4234 0.0000 (  4656 PWs)   bands (ev):

   -19.9084 -14.5147 -12.5112  -7.5269  -1.0371   4.1370   4.8809   5.8294

          k = 0.2000 0.5004 0.0000 (  4650 PWs)   bands (ev):

   -18.8013 -15.8896 -12.9344  -6.4311  -2.3728   5.7308   6.1174   6.2614

          k = 0.2000 0.5774 0.0000 (  4644 PWs)   bands (ev):

   -17.9298 -16.8661 -13.0660  -5.8089  -3.0799   6.0226   6.8809   7.4298

          k = 0.2667 0.4619 0.0000 (  4645 PWs)   bands (ev):

   -18.8833 -15.3001 -13.5816  -6.4419  -2.2425   5.6122   6.0384   7.3319

          k = 0.2667 0.5389 0.0000 (  4642 PWs)   bands (ev):

   -17.7904 -16.3068 -14.1068  -5.4000  -3.3374   6.3932   7.2316   7.7771

          k = 0.3333 0.5774 0.0000 (  4647 PWs)   bands (ev):

   -16.8702 -16.8702 -14.6662  -4.3517  -4.3517   6.2146   8.2540   8.2541

     the Fermi energy is    -4.3517 ev

!    total energy              =     -22.78955378 Ry
     estimated scf accuracy    <          3.7E-09 Ry
     smearing contrib. (-TS)   =      -0.00005015 Ry
     internal energy E=F+TS    =     -22.78950363 Ry

     The total energy is F=E-TS. E is the sum of the following terms:
     one-electron contribution =    -376.86907466 Ry
     hartree contribution      =     189.02814315 Ry
     xc contribution           =      -6.95534681 Ry
     ewald contribution        =     172.00677469 Ry

     convergence has been achieved in   6 iterations

     Forces acting on atoms (cartesian axes, Ry/au):

     atom    1 type  1   force =     0.00000000    0.00000000    0.00000000
     atom    2 type  1   force =    -0.00000000   -0.00000000    0.00000000

     Total force =     0.000000     Total SCF correction =     0.000000


     Computing stress (Cartesian axis) and pressure

          total   stress  (Ry/bohr**3)                   (kbar)     P=      -30.40
  -0.00025822  -0.00000000  -0.00000000          -37.99       -0.00       -0.00
  -0.00000000  -0.00025822   0.00000000           -0.00      -37.99        0.00
   0.00000000   0.00000000  -0.00010361            0.00        0.00      -15.24


     Writing output data file ./work/LiC472.save/
 
     init_run     :      0.07s CPU      0.08s WALL (       1 calls)
     electrons    :      1.09s CPU      1.19s WALL (       1 calls)
     forces       :      0.01s CPU      0.01s WALL (       1 calls)
     stress       :      0.02s CPU      0.02s WALL (       1 calls)

     Called by init_run:
     wfcinit      :      0.05s CPU      0.06s WALL (       1 calls)
     potinit      :      0.01s CPU      0.01s WALL (       1 calls)
     hinit0       :      0.00s CPU      0.01s WALL (       1 calls)

     Called by electrons:
     c_bands      :      0.98s CPU      1.05s WALL (       6 calls)
     sum_band     :      0.09s CPU      0.10s WALL (       6 calls)
     v_of_rho     :      0.01s CPU      0.02s WALL (       7 calls)
     mix_rho      :      0.00s CPU      0.00s WALL (       6 calls)

     Called by c_bands:
     init_us_2    :      0.01s CPU      0.01s WALL (     405 calls)
     cegterg      :      0.96s CPU      1.03s WALL (     162 calls)

     Called by *egterg:
     cdiaghg      :      0.11s CPU      0.12s WALL (    1164 calls)
     h_psi        :      0.81s CPU      0.87s WALL (    1191 calls)
     g_psi        :      0.00s CPU      0.00s WALL (    1002 calls)

     Called by h_psi:
     h_psi:calbec :      0.03s CPU      0.04s WALL (    1191 calls)
     vloc_psi     :      0.75s CPU      0.81s WALL (    1191 calls)
     add_vuspsi   :      0.01s CPU      0.01s WALL (    1191 calls)

     General routines
     calbec       :      0.04s CPU      0.04s WALL (    1326 calls)
     fft          :      0.01s CPU      0.02s WALL (      77 calls)
     ffts         :      0.00s CPU      0.00s WALL (       6 calls)
     fftw         :      0.79s CPU      0.85s WALL (   13240 calls)
 
     Parallel routines
     fft_scatt_xy :      0.06s CPU      0.06s WALL (   13323 calls)
     fft_scatt_yz :      0.41s CPU      0.44s WALL (   13323 calls)
 
     PWSCF        :      1.23s CPU      1.58s WALL

 
   This run was terminated on:  11: 1:15  22Jan2024            

=------------------------------------------------------------------------------=
   JOB DONE.
=------------------------------------------------------------------------------=
