
     Program PWSCF v.6.7MaX starts on 22Jan2024 at 11: 1:36 

     This program is part of the open-source Quantum ESPRESSO suite
     for quantum simulation of materials; please cite
         "P. Giannozzi et al., J. Phys.:Condens. Matter 21 395502 (2009);
         "P. Giannozzi et al., J. Phys.:Condens. Matter 29 465901 (2017);
          URL http://www.quantum-espresso.org", 
     in publications or presentations arising from this work. More details at
     http://www.quantum-espresso.org/quote

     Parallel version (MPI), running on    32 processors

     MPI processes distributed on     1 nodes
     R & G space division:  proc/nbgrp/npool/nimage =      32
     Waiting for input...
     Reading input from standard input
Warning: card &CELL ignored
Warning: card  CELL_DYNAMICS = 'BFGS', ignored
Warning: card  PRESS = 0.0, ignored
Warning: card  PRESS_CONV_THR = 1D-3, ignored
Warning: card  CELL_DOFREE='2DXY' ignored
Warning: card / ignored

     Current dimensions of program PWSCF are:
     Max number of different atomic species (ntypx) = 10
     Max number of k-points (npk) =  40000
     Max angular momentum in pseudopotentials (lmaxx) =  3
     Message from routine read_pp_mesh:
     mesh size missing, using the one in header

     Subspace diagonalization in iterative solution of the eigenvalue problem:
     a serial algorithm will be used

 
     Parallelization info
     --------------------
     sticks:   dense  smooth     PW     G-vecs:    dense   smooth      PW
     Min           9       9      3                 1179     1179     191
     Max          10      10      4                 1232     1232     223
     Sum         313     313     97                38859    38859    6799
 


     bravais-lattice index     =            4
     lattice parameter (alat)  =       4.8200  a.u.
     unit-cell volume          =     814.8539 (a.u.)^3
     number of atoms/cell      =            2
     number of atomic types    =            1
     number of electrons       =         8.00
     number of Kohn-Sham states=            8
     kinetic-energy cutoff     =      50.0000  Ry
     charge density cutoff     =     200.0000  Ry
     scf convergence threshold =      1.0E-08
     mixing beta               =       0.7000
     number of iterations used =            8  plain     mixing
     Exchange-correlation= PBE
                           (   1   4   3   4   0   0   0)

     celldm(1)=   4.820000  celldm(2)=   0.000000  celldm(3)=   8.402490
     celldm(4)=   0.000000  celldm(5)=   0.000000  celldm(6)=   0.000000

     crystal axes: (cart. coord. in units of alat)
               a(1) = (   1.000000   0.000000   0.000000 )  
               a(2) = (  -0.500000   0.866025   0.000000 )  
               a(3) = (   0.000000   0.000000   8.402490 )  

     reciprocal axes: (cart. coord. in units 2 pi/alat)
               b(1) = (  1.000000  0.577350  0.000000 )  
               b(2) = (  0.000000  1.154701  0.000000 )  
               b(3) = (  0.000000  0.000000  0.119012 )  


     PseudoPot. # 1 for C  read from file:
     /home/yhkim/qe-6.7/pseudo/ONCV1/1.2/C_ONCV_PBE-1.2.upf
     MD5 check sum: 1a5f83a7b1f58d24996abe00ed223ac6
     Pseudo is Norm-conserving, Zval =  4.0
     Generated using ONCVPSP code by D. R. Hamann
     Using radial grid of  602 points,  4 beta functions with: 
                l(1) =   0
                l(2) =   0
                l(3) =   1
                l(4) =   1

     atomic species   valence    mass     pseudopotential
        C              4.00    12.01070     C ( 1.00)

     24 Sym. Ops., with inversion, found



   Cartesian axes

     site n.     atom                  positions (alat units)
         1           C   tau(   1) = (  -0.0000000   0.5773503   4.2012448  )
         2           C   tau(   2) = (   0.5000000   0.2886751   4.2012448  )

     number of k points=    27  Methfessel-Paxton smearing, width (Ry)=  0.0100
                       cart. coord. in units 2pi/alat
        k(    1) = (   0.0000000   0.0000000   0.0000000), wk =   0.0088889
        k(    2) = (   0.0000000   0.0769800   0.0000000), wk =   0.0533333
        k(    3) = (   0.0000000   0.1539601   0.0000000), wk =   0.0533333
        k(    4) = (   0.0000000   0.2309401   0.0000000), wk =   0.0533333
        k(    5) = (   0.0000000   0.3079201   0.0000000), wk =   0.0533333
        k(    6) = (   0.0000000   0.3849002   0.0000000), wk =   0.0533333
        k(    7) = (   0.0000000   0.4618802   0.0000000), wk =   0.0533333
        k(    8) = (   0.0000000   0.5388603   0.0000000), wk =   0.0533333
        k(    9) = (   0.0666667   0.1154701   0.0000000), wk =   0.0533333
        k(   10) = (   0.0666667   0.1924501   0.0000000), wk =   0.1066667
        k(   11) = (   0.0666667   0.2694301   0.0000000), wk =   0.1066667
        k(   12) = (   0.0666667   0.3464102   0.0000000), wk =   0.1066667
        k(   13) = (   0.0666667   0.4233902   0.0000000), wk =   0.1066667
        k(   14) = (   0.0666667   0.5003702   0.0000000), wk =   0.1066667
        k(   15) = (   0.0666667   0.5773503   0.0000000), wk =   0.0533333
        k(   16) = (   0.1333333   0.2309401   0.0000000), wk =   0.0533333
        k(   17) = (   0.1333333   0.3079201   0.0000000), wk =   0.1066667
        k(   18) = (   0.1333333   0.3849002   0.0000000), wk =   0.1066667
        k(   19) = (   0.1333333   0.4618802   0.0000000), wk =   0.1066667
        k(   20) = (   0.1333333   0.5388603   0.0000000), wk =   0.1066667
        k(   21) = (   0.2000000   0.3464102   0.0000000), wk =   0.0533333
        k(   22) = (   0.2000000   0.4233902   0.0000000), wk =   0.1066667
        k(   23) = (   0.2000000   0.5003702   0.0000000), wk =   0.1066667
        k(   24) = (   0.2000000   0.5773503   0.0000000), wk =   0.0533333
        k(   25) = (   0.2666667   0.4618802   0.0000000), wk =   0.0533333
        k(   26) = (   0.2666667   0.5388603   0.0000000), wk =   0.1066667
        k(   27) = (   0.3333333   0.5773503   0.0000000), wk =   0.0177778

     Dense  grid:    38859 G-vectors     FFT dimensions: (  24,  24, 192)

     Estimated max dynamical RAM per process >       1.72 MB

     Estimated total dynamical RAM >      54.94 MB
 ----2D----2D----2D----2D----2D----2D----2D----2D----2D----2D----2D----2D
  The code is running with the 2D cutoff
  Please refer to:
  Sohier, T., Calandra, M., & Mauri, F. (2017), 
  Density functional perturbation theory for gated two-dimensional heterostructu
 res:
  Theoretical developments and application to flexural phonons in graphene.
  Physical Review B, 96(7), 75448. https://doi.org/10.1103/PhysRevB.96.075448
 ----2D----2D----2D----2D----2D----2D----2D----2D----2D----2D----2D----2D

     Initial potential from superposition of free atoms

     starting charge    7.98607, renormalised to    8.00000

     negative rho (up, down):  1.184E-04 0.000E+00
     Starting wfcs are random

     total cpu time spent up to now is        0.1 secs

     Self-consistent Calculation

     iteration #  1     ecut=    50.00 Ry     beta= 0.70
     Davidson diagonalization with overlap
     ethr =  1.00E-02,  avg # of iterations = 11.9

     negative rho (up, down):  1.669E-07 0.000E+00

     total cpu time spent up to now is        0.5 secs

     total energy              =     -22.75664823 Ry
     estimated scf accuracy    <       0.12218544 Ry

     iteration #  2     ecut=    50.00 Ry     beta= 0.70
     Davidson diagonalization with overlap
     ethr =  1.53E-03,  avg # of iterations =  2.4

     total cpu time spent up to now is        0.7 secs

     total energy              =     -22.77716491 Ry
     estimated scf accuracy    <       0.00201516 Ry

     iteration #  3     ecut=    50.00 Ry     beta= 0.70
     Davidson diagonalization with overlap
     ethr =  2.52E-05,  avg # of iterations =  9.7

     total cpu time spent up to now is        0.9 secs

     total energy              =     -22.78029511 Ry
     estimated scf accuracy    <       0.00013443 Ry

     iteration #  4     ecut=    50.00 Ry     beta= 0.70
     Davidson diagonalization with overlap
     c_bands:  1 eigenvalues not converged
     ethr =  1.68E-06,  avg # of iterations =  6.4

     total cpu time spent up to now is        1.1 secs

     total energy              =     -22.78032951 Ry
     estimated scf accuracy    <       0.00000018 Ry

     iteration #  5     ecut=    50.00 Ry     beta= 0.70
     Davidson diagonalization with overlap
     ethr =  2.30E-09,  avg # of iterations =  4.8

     total cpu time spent up to now is        1.3 secs

     total energy              =     -22.78033229 Ry
     estimated scf accuracy    <       0.00000003 Ry

     iteration #  6     ecut=    50.00 Ry     beta= 0.70
     Davidson diagonalization with overlap
     ethr =  3.40E-10,  avg # of iterations =  2.0

     total cpu time spent up to now is        1.4 secs

     End of self-consistent calculation

          k = 0.0000 0.0000 0.0000 (  4963 PWs)   bands (ev):

   -23.2694 -11.4894  -7.6230  -7.6230  -0.9589  -0.2001   0.5953   0.9489

          k = 0.0000 0.0770 0.0000 (  4947 PWs)   bands (ev):

   -23.1707 -11.3735  -8.0349  -7.8236  -0.8255  -0.0652   0.7313   1.0841

          k = 0.0000 0.1540 0.0000 (  4901 PWs)   bands (ev):

   -22.8755 -11.0280  -9.1178  -8.3307  -0.4254   0.3388   1.1394   1.4894

          k = 0.0000 0.2309 0.0000 (  4889 PWs)   bands (ev):

   -22.3860 -10.5921 -10.4616  -8.9694   0.2408   1.0091   1.8190   2.1611

          k = 0.0000 0.3079 0.0000 (  4883 PWs)   bands (ev):

   -21.7067 -12.2321  -9.6889  -9.5932   1.1703   1.6162   2.0061   2.5437

          k = 0.0000 0.3849 0.0000 (  4862 PWs)   bands (ev):

   -20.8466 -13.8945 -10.1134  -8.7405   0.0015   2.2012   2.4070   3.1676

          k = 0.0000 0.4619 0.0000 (  4828 PWs)   bands (ev):

   -19.8267 -15.4815 -10.4812  -7.6988  -1.5650   2.0093   3.8223   4.6254

          k = 0.0000 0.5389 0.0000 (  4806 PWs)   bands (ev):

   -18.7553 -16.8455 -10.6700  -6.8384  -2.7060   1.8912   5.5110   6.3181

          k = 0.0667 0.1155 0.0000 (  4925 PWs)   bands (ev):

   -22.9738 -11.1433  -8.7361  -8.2232  -0.5587   0.2042   1.0035   1.3543

          k = 0.0667 0.1925 0.0000 (  4900 PWs)   bands (ev):

   -22.5814 -10.6871  -9.9340  -8.8795  -0.0253   0.7419   1.5475   1.8938

          k = 0.0667 0.2694 0.0000 (  4881 PWs)   bands (ev):

   -21.9969 -11.4340 -10.0162  -9.5705   0.7732   1.5388   2.3468   2.3625

          k = 0.0667 0.3464 0.0000 (  4878 PWs)   bands (ev):

   -21.2268 -13.0543 -10.1767  -9.1516   0.7470   1.8326   2.6290   2.8338

          k = 0.0667 0.4234 0.0000 (  4850 PWs)   bands (ev):

   -20.2843 -14.6650 -10.6382  -8.1400  -0.8565   2.5512   3.1704   3.9549

          k = 0.0667 0.5004 0.0000 (  4822 PWs)   bands (ev):

   -19.2107 -16.1611 -10.9246  -7.1285  -2.2575   2.3830   4.7338   5.5238

          k = 0.0667 0.5774 0.0000 (  4826 PWs)   bands (ev):

   -18.4094 -17.1068 -11.0214  -6.6036  -2.9205   2.3230   6.4440   6.6105

          k = 0.1333 0.2309 0.0000 (  4901 PWs)   bands (ev):

   -22.0940 -11.0010 -10.1263  -9.7485   0.6408   1.4119   2.2279   2.5987

          k = 0.1333 0.3079 0.0000 (  4879 PWs)   bands (ev):

   -21.4183 -12.3250 -10.5820  -9.3590   1.2173   1.5707   2.3476   3.1788

          k = 0.1333 0.3849 0.0000 (  4852 PWs)   bands (ev):

   -20.5638 -13.8131 -11.2135  -8.4173  -0.2811   2.7590   3.5374   3.8856

          k = 0.1333 0.4619 0.0000 (  4849 PWs)   bands (ev):

   -19.5527 -15.3125 -11.6323  -7.3763  -1.7417   3.6490   4.2168   4.9601

          k = 0.1333 0.5389 0.0000 (  4851 PWs)   bands (ev):

   -18.4921 -16.6332 -11.8416  -6.4943  -2.8504   3.5346   5.8784   6.4980

          k = 0.2000 0.3464 0.0000 (  4843 PWs)   bands (ev):

   -20.6577 -13.3182 -11.6407  -8.5109  -0.0500   2.6291   3.3930   4.2655

          k = 0.2000 0.4234 0.0000 (  4860 PWs)   bands (ev):

   -19.7304 -14.5237 -12.4079  -7.5141  -1.3856   3.9388   4.6589   5.4104

          k = 0.2000 0.5004 0.0000 (  4849 PWs)   bands (ev):

   -18.6784 -15.8262 -12.8237  -6.4832  -2.6367   5.2028   5.5120   5.9657

          k = 0.2000 0.5774 0.0000 (  4854 PWs)   bands (ev):

   -17.8875 -16.7147 -12.9545  -5.9002  -3.2976   5.1559   6.5505   7.0517

          k = 0.2667 0.4619 0.0000 (  4861 PWs)   bands (ev):

   -18.7522 -15.3120 -13.4023  -6.4912  -2.5255   5.3471   5.7572   6.9271

          k = 0.2667 0.5389 0.0000 (  4850 PWs)   bands (ev):

   -17.7240 -16.2654 -13.9023  -5.5117  -3.5572   6.1107   6.7534   6.9944

          k = 0.3333 0.5774 0.0000 (  4842 PWs)   bands (ev):

   -16.8496 -16.8496 -14.3909  -4.5204  -4.5204   5.9551   7.5819   7.5821

     the Fermi energy is    -4.5204 ev

!    total energy              =     -22.78033229 Ry
     estimated scf accuracy    <          4.6E-10 Ry
     smearing contrib. (-TS)   =      -0.00005015 Ry
     internal energy E=F+TS    =     -22.78028214 Ry

     The total energy is F=E-TS. E is the sum of the following terms:
     one-electron contribution =    -361.23659909 Ry
     hartree contribution      =     181.17389705 Ry
     xc contribution           =      -6.86840714 Ry
     ewald contribution        =     164.15082703 Ry

     convergence has been achieved in   6 iterations

     Forces acting on atoms (cartesian axes, Ry/au):

     atom    1 type  1   force =     0.00000000    0.00000000    0.00000000
     atom    2 type  1   force =     0.00000000    0.00000000    0.00000000

     Total force =     0.000000     Total SCF correction =     0.000000


     Computing stress (Cartesian axis) and pressure

          total   stress  (Ry/bohr**3)                   (kbar)     P=      -51.26
  -0.00047380  -0.00000000   0.00000000          -69.70       -0.00        0.00
  -0.00000000  -0.00047380   0.00000000           -0.00      -69.70        0.00
   0.00000000  -0.00000000  -0.00009771            0.00       -0.00      -14.37


     Writing output data file ./work/LiC482.save/
 
     init_run     :      0.08s CPU      0.09s WALL (       1 calls)
     electrons    :      1.23s CPU      1.35s WALL (       1 calls)
     forces       :      0.01s CPU      0.01s WALL (       1 calls)
     stress       :      0.02s CPU      0.02s WALL (       1 calls)

     Called by init_run:
     wfcinit      :      0.06s CPU      0.07s WALL (       1 calls)
     potinit      :      0.00s CPU      0.01s WALL (       1 calls)
     hinit0       :      0.00s CPU      0.01s WALL (       1 calls)

     Called by electrons:
     c_bands      :      1.11s CPU      1.20s WALL (       6 calls)
     sum_band     :      0.11s CPU      0.12s WALL (       6 calls)
     v_of_rho     :      0.01s CPU      0.02s WALL (       7 calls)
     mix_rho      :      0.00s CPU      0.00s WALL (       6 calls)

     Called by c_bands:
     init_us_2    :      0.01s CPU      0.01s WALL (     405 calls)
     cegterg      :      1.10s CPU      1.17s WALL (     162 calls)

     Called by *egterg:
     cdiaghg      :      0.11s CPU      0.11s WALL (    1165 calls)
     h_psi        :      0.95s CPU      1.02s WALL (    1192 calls)
     g_psi        :      0.00s CPU      0.00s WALL (    1003 calls)

     Called by h_psi:
     h_psi:calbec :      0.04s CPU      0.04s WALL (    1192 calls)
     vloc_psi     :      0.89s CPU      0.96s WALL (    1192 calls)
     add_vuspsi   :      0.01s CPU      0.01s WALL (    1192 calls)

     General routines
     calbec       :      0.04s CPU      0.04s WALL (    1327 calls)
     fft          :      0.01s CPU      0.01s WALL (      77 calls)
     ffts         :      0.00s CPU      0.00s WALL (       6 calls)
     fftw         :      0.94s CPU      1.01s WALL (   13280 calls)
 
     Parallel routines
     fft_scatt_xy :      0.06s CPU      0.07s WALL (   13363 calls)
     fft_scatt_yz :      0.55s CPU      0.59s WALL (   13363 calls)
 
     PWSCF        :      1.38s CPU      1.74s WALL

 
   This run was terminated on:  11: 1:37  22Jan2024            

=------------------------------------------------------------------------------=
   JOB DONE.
=------------------------------------------------------------------------------=
