
     Program PWSCF v.6.7MaX starts on 22Jan2024 at 11: 0:32 

     This program is part of the open-source Quantum ESPRESSO suite
     for quantum simulation of materials; please cite
         "P. Giannozzi et al., J. Phys.:Condens. Matter 21 395502 (2009);
         "P. Giannozzi et al., J. Phys.:Condens. Matter 29 465901 (2017);
          URL http://www.quantum-espresso.org", 
     in publications or presentations arising from this work. More details at
     http://www.quantum-espresso.org/quote

     Parallel version (MPI), running on    32 processors

     MPI processes distributed on     1 nodes
     R & G space division:  proc/nbgrp/npool/nimage =      32
     Waiting for input...
     Reading input from standard input
Warning: card &CELL ignored
Warning: card  CELL_DYNAMICS = 'BFGS', ignored
Warning: card  PRESS = 0.0, ignored
Warning: card  PRESS_CONV_THR = 1D-3, ignored
Warning: card  CELL_DOFREE='2DXY' ignored
Warning: card / ignored

     Current dimensions of program PWSCF are:
     Max number of different atomic species (ntypx) = 10
     Max number of k-points (npk) =  40000
     Max angular momentum in pseudopotentials (lmaxx) =  3
     Message from routine read_pp_mesh:
     mesh size missing, using the one in header

     Subspace diagonalization in iterative solution of the eigenvalue problem:
     a serial algorithm will be used

 
     Parallelization info
     --------------------
     sticks:   dense  smooth     PW     G-vecs:    dense   smooth      PW
     Min           8       8      2                 1044     1044     166
     Max           9       9      3                 1081     1081     211
     Sum         283     283     85                34197    34197    6151
 


     bravais-lattice index     =            4
     lattice parameter (alat)  =       4.5200  a.u.
     unit-cell volume          =     716.5764 (a.u.)^3
     number of atoms/cell      =            2
     number of atomic types    =            1
     number of electrons       =         8.00
     number of Kohn-Sham states=            8
     kinetic-energy cutoff     =      50.0000  Ry
     charge density cutoff     =     200.0000  Ry
     scf convergence threshold =      1.0E-08
     mixing beta               =       0.7000
     number of iterations used =            8  plain     mixing
     Exchange-correlation= PBE
                           (   1   4   3   4   0   0   0)

     celldm(1)=   4.520000  celldm(2)=   0.000000  celldm(3)=   8.960177
     celldm(4)=   0.000000  celldm(5)=   0.000000  celldm(6)=   0.000000

     crystal axes: (cart. coord. in units of alat)
               a(1) = (   1.000000   0.000000   0.000000 )  
               a(2) = (  -0.500000   0.866025   0.000000 )  
               a(3) = (   0.000000   0.000000   8.960177 )  

     reciprocal axes: (cart. coord. in units 2 pi/alat)
               b(1) = (  1.000000  0.577350  0.000000 )  
               b(2) = (  0.000000  1.154701  0.000000 )  
               b(3) = (  0.000000  0.000000  0.111605 )  


     PseudoPot. # 1 for C  read from file:
     /home/yhkim/qe-6.7/pseudo/ONCV1/1.2/C_ONCV_PBE-1.2.upf
     MD5 check sum: 1a5f83a7b1f58d24996abe00ed223ac6
     Pseudo is Norm-conserving, Zval =  4.0
     Generated using ONCVPSP code by D. R. Hamann
     Using radial grid of  602 points,  4 beta functions with: 
                l(1) =   0
                l(2) =   0
                l(3) =   1
                l(4) =   1

     atomic species   valence    mass     pseudopotential
        C              4.00    12.01070     C ( 1.00)

     24 Sym. Ops., with inversion, found



   Cartesian axes

     site n.     atom                  positions (alat units)
         1           C   tau(   1) = (  -0.0000000   0.5773503   4.4800885  )
         2           C   tau(   2) = (   0.5000000   0.2886751   4.4800885  )

     number of k points=    27  Methfessel-Paxton smearing, width (Ry)=  0.0100
                       cart. coord. in units 2pi/alat
        k(    1) = (   0.0000000   0.0000000   0.0000000), wk =   0.0088889
        k(    2) = (   0.0000000   0.0769800   0.0000000), wk =   0.0533333
        k(    3) = (   0.0000000   0.1539601   0.0000000), wk =   0.0533333
        k(    4) = (   0.0000000   0.2309401   0.0000000), wk =   0.0533333
        k(    5) = (   0.0000000   0.3079201   0.0000000), wk =   0.0533333
        k(    6) = (   0.0000000   0.3849002   0.0000000), wk =   0.0533333
        k(    7) = (   0.0000000   0.4618802   0.0000000), wk =   0.0533333
        k(    8) = (   0.0000000   0.5388603   0.0000000), wk =   0.0533333
        k(    9) = (   0.0666667   0.1154701   0.0000000), wk =   0.0533333
        k(   10) = (   0.0666667   0.1924501   0.0000000), wk =   0.1066667
        k(   11) = (   0.0666667   0.2694301   0.0000000), wk =   0.1066667
        k(   12) = (   0.0666667   0.3464102   0.0000000), wk =   0.1066667
        k(   13) = (   0.0666667   0.4233902   0.0000000), wk =   0.1066667
        k(   14) = (   0.0666667   0.5003702   0.0000000), wk =   0.1066667
        k(   15) = (   0.0666667   0.5773503   0.0000000), wk =   0.0533333
        k(   16) = (   0.1333333   0.2309401   0.0000000), wk =   0.0533333
        k(   17) = (   0.1333333   0.3079201   0.0000000), wk =   0.1066667
        k(   18) = (   0.1333333   0.3849002   0.0000000), wk =   0.1066667
        k(   19) = (   0.1333333   0.4618802   0.0000000), wk =   0.1066667
        k(   20) = (   0.1333333   0.5388603   0.0000000), wk =   0.1066667
        k(   21) = (   0.2000000   0.3464102   0.0000000), wk =   0.0533333
        k(   22) = (   0.2000000   0.4233902   0.0000000), wk =   0.1066667
        k(   23) = (   0.2000000   0.5003702   0.0000000), wk =   0.1066667
        k(   24) = (   0.2000000   0.5773503   0.0000000), wk =   0.0533333
        k(   25) = (   0.2666667   0.4618802   0.0000000), wk =   0.0533333
        k(   26) = (   0.2666667   0.5388603   0.0000000), wk =   0.1066667
        k(   27) = (   0.3333333   0.5773503   0.0000000), wk =   0.0177778

     Dense  grid:    34197 G-vectors     FFT dimensions: (  24,  24, 192)

     Estimated max dynamical RAM per process >       1.58 MB

     Estimated total dynamical RAM >      50.46 MB
 ----2D----2D----2D----2D----2D----2D----2D----2D----2D----2D----2D----2D
  The code is running with the 2D cutoff
  Please refer to:
  Sohier, T., Calandra, M., & Mauri, F. (2017), 
  Density functional perturbation theory for gated two-dimensional heterostructu
 res:
  Theoretical developments and application to flexural phonons in graphene.
  Physical Review B, 96(7), 75448. https://doi.org/10.1103/PhysRevB.96.075448
 ----2D----2D----2D----2D----2D----2D----2D----2D----2D----2D----2D----2D

     Initial potential from superposition of free atoms

     starting charge    7.98607, renormalised to    8.00000

     negative rho (up, down):  1.128E-04 0.000E+00
     Starting wfcs are random

     total cpu time spent up to now is        0.1 secs

     Self-consistent Calculation

     iteration #  1     ecut=    50.00 Ry     beta= 0.70
     Davidson diagonalization with overlap
     ethr =  1.00E-02,  avg # of iterations = 11.4

     negative rho (up, down):  1.358E-07 0.000E+00

     total cpu time spent up to now is        0.5 secs

     total energy              =     -22.74447469 Ry
     estimated scf accuracy    <       0.21447588 Ry

     iteration #  2     ecut=    50.00 Ry     beta= 0.70
     Davidson diagonalization with overlap
     ethr =  2.68E-03,  avg # of iterations =  2.2

     total cpu time spent up to now is        0.6 secs

     total energy              =     -22.77740763 Ry
     estimated scf accuracy    <       0.00229323 Ry

     iteration #  3     ecut=    50.00 Ry     beta= 0.70
     Davidson diagonalization with overlap
     c_bands:  1 eigenvalues not converged
     ethr =  2.87E-05,  avg # of iterations = 10.0

     total cpu time spent up to now is        0.8 secs

     total energy              =     -22.78071269 Ry
     estimated scf accuracy    <       0.00016065 Ry

     iteration #  4     ecut=    50.00 Ry     beta= 0.70
     Davidson diagonalization with overlap
     c_bands:  1 eigenvalues not converged
     ethr =  2.01E-06,  avg # of iterations =  6.6

     total cpu time spent up to now is        1.0 secs

     total energy              =     -22.78075221 Ry
     estimated scf accuracy    <       0.00000031 Ry

     iteration #  5     ecut=    50.00 Ry     beta= 0.70
     Davidson diagonalization with overlap
     c_bands:  1 eigenvalues not converged
     ethr =  3.92E-09,  avg # of iterations =  4.9

     total cpu time spent up to now is        1.2 secs

     total energy              =     -22.78075492 Ry
     estimated scf accuracy    <       0.00000003 Ry

     iteration #  6     ecut=    50.00 Ry     beta= 0.70
     Davidson diagonalization with overlap
     ethr =  3.50E-10,  avg # of iterations =  2.0

     total cpu time spent up to now is        1.3 secs

     End of self-consistent calculation

          k = 0.0000 0.0000 0.0000 (  4255 PWs)   bands (ev):

   -24.2596 -12.2336  -7.0041  -7.0041  -0.9975  -0.2055   0.5779   0.9335

          k = 0.0000 0.0770 0.0000 (  4213 PWs)   bands (ev):

   -24.1490 -12.0986  -7.4381  -7.2455  -0.8462  -0.0516   0.7326   1.0877

          k = 0.0000 0.1540 0.0000 (  4223 PWs)   bands (ev):

   -23.8178 -11.6950  -8.6164  -7.8658  -0.3922   0.4095   1.1965   1.5500

          k = 0.0000 0.2309 0.0000 (  4255 PWs)   bands (ev):

   -23.2686 -11.0309 -10.2375  -8.6357   0.3643   1.1758   1.9699   2.3185

          k = 0.0000 0.3079 0.0000 (  4247 PWs)   bands (ev):

   -22.5052 -12.0545 -10.1188  -9.3808   1.4213   2.2285   3.0514   3.2796

          k = 0.0000 0.3849 0.0000 (  4277 PWs)   bands (ev):

   -21.5350 -13.9106  -9.9999  -8.9975   1.3168   2.7728   3.6548   4.4138

          k = 0.0000 0.4619 0.0000 (  4301 PWs)   bands (ev):

   -20.3697 -15.7055 -10.4366  -7.7544  -0.6067   4.2854   4.5870   5.3211

          k = 0.0000 0.5389 0.0000 (  4284 PWs)   bands (ev):

   -19.0566 -17.3425 -10.6604  -6.7030  -2.0180   4.3327   6.3769   7.2768

          k = 0.0667 0.1155 0.0000 (  4217 PWs)   bands (ev):

   -23.9281 -11.8298  -8.1914  -7.7328  -0.5435   0.2558   1.0419   1.3959

          k = 0.0667 0.1925 0.0000 (  4222 PWs)   bands (ev):

   -23.4877 -11.2952  -9.4929  -8.5264   0.0623   0.8700   1.6608   2.0117

          k = 0.0667 0.2694 0.0000 (  4253 PWs)   bands (ev):

   -22.8318 -11.1521 -10.5056  -9.3447   0.9697   1.7862   2.5887   2.9297

          k = 0.0667 0.3464 0.0000 (  4277 PWs)   bands (ev):

   -21.9651 -12.9583 -10.0561  -9.4856   2.1758   2.2376   3.0566   3.8245

          k = 0.0667 0.4234 0.0000 (  4290 PWs)   bands (ev):

   -20.8967 -14.7695 -10.5973  -8.2848   0.2846   3.6714   4.5533   4.9993

          k = 0.0667 0.5004 0.0000 (  4294 PWs)   bands (ev):

   -19.6473 -16.4890 -10.9321  -7.0660  -1.4410   4.8351   5.5072   6.3602

          k = 0.0667 0.5774 0.0000 (  4288 PWs)   bands (ev):

   -18.5246 -17.7722 -11.0456  -6.4148  -2.2664   4.8080   7.4666   7.6164

          k = 0.1333 0.2309 0.0000 (  4247 PWs)   bands (ev):

   -22.9408 -10.6358 -10.6247  -9.5749   0.8195   1.6356   2.4345   2.7800

          k = 0.1333 0.3079 0.0000 (  4283 PWs)   bands (ev):

   -22.1815 -12.0850 -10.5465  -9.7326   1.8771   2.6800   2.9135   3.5174

          k = 0.1333 0.3849 0.0000 (  4301 PWs)   bands (ev):

   -21.2169 -13.7674 -11.2561  -8.6176   1.0394   3.2308   4.0743   4.9075

          k = 0.1333 0.4619 0.0000 (  4289 PWs)   bands (ev):

   -20.0607 -15.4764 -11.7226  -7.3734  -0.7524   4.8696   5.7160   6.2271

          k = 0.1333 0.5389 0.0000 (  4313 PWs)   bands (ev):

   -18.7662 -17.0667 -11.9571  -6.3013  -2.1222   6.1170   6.8106   7.5394

          k = 0.2000 0.3464 0.0000 (  4295 PWs)   bands (ev):

   -21.3242 -13.1109 -11.8231  -8.7303   1.3566   3.0822   3.9065   4.7548

          k = 0.2000 0.4234 0.0000 (  4309 PWs)   bands (ev):

   -20.2713 -14.4705 -12.6835  -7.5445  -0.2606   4.5769   5.3701   6.2984

          k = 0.2000 0.5004 0.0000 (  4300 PWs)   bands (ev):

   -19.0478 -16.0076 -13.1139  -6.3058  -1.7842   6.3421   6.9171   7.9452

          k = 0.2000 0.5774 0.0000 (  4287 PWs)   bands (ev):

   -17.9725 -17.2038 -13.2475  -5.5914  -2.5989   7.6233   7.8851   8.2384

          k = 0.2667 0.4619 0.0000 (  4301 PWs)   bands (ev):

   -19.1476 -15.2361 -13.9302  -6.3239  -1.6097   6.1955   6.6631   7.9515

          k = 0.2667 0.5389 0.0000 (  4301 PWs)   bands (ev):

   -17.9112 -16.3818 -14.4928  -5.1454  -2.8438   7.0256   8.0245   9.4970

          k = 0.3333 0.5774 0.0000 (  4305 PWs)   bands (ev):

   -16.8720 -16.8720 -15.2588  -3.9695  -3.9695   6.7951   9.4959   9.4972

     the Fermi energy is    -3.9695 ev

!    total energy              =     -22.78075493 Ry
     estimated scf accuracy    <          3.8E-10 Ry
     smearing contrib. (-TS)   =      -0.00005015 Ry
     internal energy E=F+TS    =     -22.78070478 Ry

     The total energy is F=E-TS. E is the sum of the following terms:
     one-electron contribution =    -411.37800799 Ry
     hartree contribution      =     206.37235483 Ry
     xc contribution           =      -7.14343593 Ry
     ewald contribution        =     189.36838431 Ry

     convergence has been achieved in   6 iterations

     Forces acting on atoms (cartesian axes, Ry/au):

     atom    1 type  1   force =     0.00000000    0.00000000    0.00000000
     atom    2 type  1   force =     0.00000000    0.00000000    0.00000000

     Total force =     0.000000     Total SCF correction =     0.000000


     Computing stress (Cartesian axis) and pressure

          total   stress  (Ry/bohr**3)                   (kbar)     P=       26.78
   0.00033130   0.00000000   0.00000000           48.74        0.00        0.00
   0.00000000   0.00033130  -0.00000000            0.00       48.74       -0.00
  -0.00000000   0.00000000  -0.00011655           -0.00        0.00      -17.15


     Writing output data file ./work/LiC452.save/
 
     init_run     :      0.06s CPU      0.08s WALL (       1 calls)
     electrons    :      1.07s CPU      1.19s WALL (       1 calls)
     forces       :      0.01s CPU      0.01s WALL (       1 calls)
     stress       :      0.02s CPU      0.02s WALL (       1 calls)

     Called by init_run:
     wfcinit      :      0.05s CPU      0.06s WALL (       1 calls)
     potinit      :      0.01s CPU      0.01s WALL (       1 calls)
     hinit0       :      0.00s CPU      0.00s WALL (       1 calls)

     Called by electrons:
     c_bands      :      0.97s CPU      1.05s WALL (       6 calls)
     sum_band     :      0.09s CPU      0.10s WALL (       6 calls)
     v_of_rho     :      0.01s CPU      0.02s WALL (       7 calls)
     mix_rho      :      0.00s CPU      0.00s WALL (       6 calls)

     Called by c_bands:
     init_us_2    :      0.01s CPU      0.01s WALL (     405 calls)
     cegterg      :      0.95s CPU      1.03s WALL (     162 calls)

     Called by *egterg:
     cdiaghg      :      0.10s CPU      0.11s WALL (    1166 calls)
     h_psi        :      0.80s CPU      0.87s WALL (    1193 calls)
     g_psi        :      0.00s CPU      0.00s WALL (    1004 calls)

     Called by h_psi:
     h_psi:calbec :      0.03s CPU      0.03s WALL (    1193 calls)
     vloc_psi     :      0.75s CPU      0.81s WALL (    1193 calls)
     add_vuspsi   :      0.01s CPU      0.01s WALL (    1193 calls)

     General routines
     calbec       :      0.04s CPU      0.04s WALL (    1328 calls)
     fft          :      0.01s CPU      0.02s WALL (      77 calls)
     ffts         :      0.00s CPU      0.00s WALL (       6 calls)
     fftw         :      0.78s CPU      0.85s WALL (   13284 calls)
 
     Parallel routines
     fft_scatt_xy :      0.06s CPU      0.06s WALL (   13367 calls)
     fft_scatt_yz :      0.40s CPU      0.44s WALL (   13367 calls)
 
     PWSCF        :      1.20s CPU      1.55s WALL

 
   This run was terminated on:  11: 0:34  22Jan2024            

=------------------------------------------------------------------------------=
   JOB DONE.
=------------------------------------------------------------------------------=
