
     Program PWSCF v.6.7MaX starts on 22Jan2024 at 10:37:48 

     This program is part of the open-source Quantum ESPRESSO suite
     for quantum simulation of materials; please cite
         "P. Giannozzi et al., J. Phys.:Condens. Matter 21 395502 (2009);
         "P. Giannozzi et al., J. Phys.:Condens. Matter 29 465901 (2017);
          URL http://www.quantum-espresso.org", 
     in publications or presentations arising from this work. More details at
     http://www.quantum-espresso.org/quote

     Parallel version (MPI), running on    32 processors

     MPI processes distributed on     1 nodes
     R & G space division:  proc/nbgrp/npool/nimage =      32
     Waiting for input...
     Reading input from standard input
Warning: card &CELL ignored
Warning: card  CELL_DYNAMICS = 'BFGS', ignored
Warning: card  PRESS = 0.0, ignored
Warning: card  PRESS_CONV_THR = 1D-3, ignored
Warning: card  CELL_DOFREE='2DXY' ignored
Warning: card / ignored

     Current dimensions of program PWSCF are:
     Max number of different atomic species (ntypx) = 10
     Max number of k-points (npk) =  40000
     Max angular momentum in pseudopotentials (lmaxx) =  3
     Message from routine read_pp_mesh:
     mesh size missing, using the one in header

     Subspace diagonalization in iterative solution of the eigenvalue problem:
     a serial algorithm will be used

 
     Parallelization info
     --------------------
     sticks:   dense  smooth     PW     G-vecs:    dense   smooth      PW
     Min           8       8      2                 1040     1040     166
     Max           9       9      3                 1073     1073     209
     Sum         283     283     85                33885    33885    6115
 


     bravais-lattice index     =            4
     lattice parameter (alat)  =       4.5000  a.u.
     unit-cell volume          =     710.2491 (a.u.)^3
     number of atoms/cell      =            2
     number of atomic types    =            1
     number of electrons       =         8.00
     number of Kohn-Sham states=            8
     kinetic-energy cutoff     =      50.0000  Ry
     charge density cutoff     =     200.0000  Ry
     scf convergence threshold =      1.0E-08
     mixing beta               =       0.7000
     number of iterations used =            8  plain     mixing
     Exchange-correlation= PBE
                           (   1   4   3   4   0   0   0)

     celldm(1)=   4.500000  celldm(2)=   0.000000  celldm(3)=   9.000000
     celldm(4)=   0.000000  celldm(5)=   0.000000  celldm(6)=   0.000000

     crystal axes: (cart. coord. in units of alat)
               a(1) = (   1.000000   0.000000   0.000000 )  
               a(2) = (  -0.500000   0.866025   0.000000 )  
               a(3) = (   0.000000   0.000000   9.000000 )  

     reciprocal axes: (cart. coord. in units 2 pi/alat)
               b(1) = (  1.000000  0.577350  0.000000 )  
               b(2) = (  0.000000  1.154701  0.000000 )  
               b(3) = (  0.000000  0.000000  0.111111 )  


     PseudoPot. # 1 for C  read from file:
     /home/yhkim/qe-6.7/pseudo/ONCV1/1.2/C_ONCV_PBE-1.2.upf
     MD5 check sum: 1a5f83a7b1f58d24996abe00ed223ac6
     Pseudo is Norm-conserving, Zval =  4.0
     Generated using ONCVPSP code by D. R. Hamann
     Using radial grid of  602 points,  4 beta functions with: 
                l(1) =   0
                l(2) =   0
                l(3) =   1
                l(4) =   1

     atomic species   valence    mass     pseudopotential
        C              4.00    12.01070     C ( 1.00)

     24 Sym. Ops., with inversion, found



   Cartesian axes

     site n.     atom                  positions (alat units)
         1           C   tau(   1) = (  -0.0000000   0.5773503   4.5000000  )
         2           C   tau(   2) = (   0.5000000   0.2886751   4.5000000  )

     number of k points=    27  Methfessel-Paxton smearing, width (Ry)=  0.0100
                       cart. coord. in units 2pi/alat
        k(    1) = (   0.0000000   0.0000000   0.0000000), wk =   0.0088889
        k(    2) = (   0.0000000   0.0769800   0.0000000), wk =   0.0533333
        k(    3) = (   0.0000000   0.1539601   0.0000000), wk =   0.0533333
        k(    4) = (   0.0000000   0.2309401   0.0000000), wk =   0.0533333
        k(    5) = (   0.0000000   0.3079201   0.0000000), wk =   0.0533333
        k(    6) = (   0.0000000   0.3849002   0.0000000), wk =   0.0533333
        k(    7) = (   0.0000000   0.4618802   0.0000000), wk =   0.0533333
        k(    8) = (   0.0000000   0.5388603   0.0000000), wk =   0.0533333
        k(    9) = (   0.0666667   0.1154701   0.0000000), wk =   0.0533333
        k(   10) = (   0.0666667   0.1924501   0.0000000), wk =   0.1066667
        k(   11) = (   0.0666667   0.2694301   0.0000000), wk =   0.1066667
        k(   12) = (   0.0666667   0.3464102   0.0000000), wk =   0.1066667
        k(   13) = (   0.0666667   0.4233902   0.0000000), wk =   0.1066667
        k(   14) = (   0.0666667   0.5003702   0.0000000), wk =   0.1066667
        k(   15) = (   0.0666667   0.5773503   0.0000000), wk =   0.0533333
        k(   16) = (   0.1333333   0.2309401   0.0000000), wk =   0.0533333
        k(   17) = (   0.1333333   0.3079201   0.0000000), wk =   0.1066667
        k(   18) = (   0.1333333   0.3849002   0.0000000), wk =   0.1066667
        k(   19) = (   0.1333333   0.4618802   0.0000000), wk =   0.1066667
        k(   20) = (   0.1333333   0.5388603   0.0000000), wk =   0.1066667
        k(   21) = (   0.2000000   0.3464102   0.0000000), wk =   0.0533333
        k(   22) = (   0.2000000   0.4233902   0.0000000), wk =   0.1066667
        k(   23) = (   0.2000000   0.5003702   0.0000000), wk =   0.1066667
        k(   24) = (   0.2000000   0.5773503   0.0000000), wk =   0.0533333
        k(   25) = (   0.2666667   0.4618802   0.0000000), wk =   0.0533333
        k(   26) = (   0.2666667   0.5388603   0.0000000), wk =   0.1066667
        k(   27) = (   0.3333333   0.5773503   0.0000000), wk =   0.0177778

     Dense  grid:    33885 G-vectors     FFT dimensions: (  24,  24, 192)

     Estimated max dynamical RAM per process >       1.57 MB

     Estimated total dynamical RAM >      50.23 MB
 ----2D----2D----2D----2D----2D----2D----2D----2D----2D----2D----2D----2D
  The code is running with the 2D cutoff
  Please refer to:
  Sohier, T., Calandra, M., & Mauri, F. (2017), 
  Density functional perturbation theory for gated two-dimensional heterostructu
 res:
  Theoretical developments and application to flexural phonons in graphene.
  Physical Review B, 96(7), 75448. https://doi.org/10.1103/PhysRevB.96.075448
 ----2D----2D----2D----2D----2D----2D----2D----2D----2D----2D----2D----2D

     Initial potential from superposition of free atoms

     starting charge    7.98607, renormalised to    8.00000

     negative rho (up, down):  1.113E-04 0.000E+00
     Starting wfcs are random

     total cpu time spent up to now is        0.1 secs

     Self-consistent Calculation

     iteration #  1     ecut=    50.00 Ry     beta= 0.70
     Davidson diagonalization with overlap
     ethr =  1.00E-02,  avg # of iterations = 11.3

     negative rho (up, down):  1.111E-07 0.000E+00

     total cpu time spent up to now is        0.5 secs

     total energy              =     -22.73958682 Ry
     estimated scf accuracy    <       0.22523439 Ry

     iteration #  2     ecut=    50.00 Ry     beta= 0.70
     Davidson diagonalization with overlap
     ethr =  2.82E-03,  avg # of iterations =  2.0

     total cpu time spent up to now is        0.6 secs

     total energy              =     -22.77426064 Ry
     estimated scf accuracy    <       0.00225874 Ry

     iteration #  3     ecut=    50.00 Ry     beta= 0.70
     Davidson diagonalization with overlap
     ethr =  2.82E-05,  avg # of iterations = 10.9

     total cpu time spent up to now is        0.8 secs

     total energy              =     -22.77749962 Ry
     estimated scf accuracy    <       0.00016734 Ry

     iteration #  4     ecut=    50.00 Ry     beta= 0.70
     Davidson diagonalization with overlap
     c_bands:  1 eigenvalues not converged
     c_bands:  1 eigenvalues not converged
     ethr =  2.09E-06,  avg # of iterations =  6.5

     total cpu time spent up to now is        1.0 secs

     total energy              =     -22.77753666 Ry
     estimated scf accuracy    <       0.00000039 Ry

     iteration #  5     ecut=    50.00 Ry     beta= 0.70
     Davidson diagonalization with overlap
     ethr =  4.88E-09,  avg # of iterations =  4.7

     total cpu time spent up to now is        1.2 secs

     total energy              =     -22.77753977 Ry
     estimated scf accuracy    <       0.00000003 Ry

     iteration #  6     ecut=    50.00 Ry     beta= 0.70
     Davidson diagonalization with overlap
     ethr =  3.17E-10,  avg # of iterations =  2.0

     total cpu time spent up to now is        1.3 secs

     End of self-consistent calculation

          k = 0.0000 0.0000 0.0000 (  4183 PWs)   bands (ev):

   -24.3278 -12.2871  -6.9493  -6.9493  -0.9998  -0.2056   0.5770   0.9326

          k = 0.0000 0.0770 0.0000 (  4167 PWs)   bands (ev):

   -24.2163 -12.1507  -7.3901  -7.1969  -0.8473  -0.0504   0.7330   1.0882

          k = 0.0000 0.1540 0.0000 (  4197 PWs)   bands (ev):

   -23.8827 -11.7434  -8.5770  -7.8275  -0.3893   0.4149   1.2011   1.5547

          k = 0.0000 0.2309 0.0000 (  4185 PWs)   bands (ev):

   -23.3290 -11.0719 -10.2068  -8.6040   0.3740   1.1883   1.9814   2.3302

          k = 0.0000 0.3079 0.0000 (  4201 PWs)   bands (ev):

   -22.5601 -12.0380 -10.1500  -9.3585   1.4403   2.2522   3.0728   3.3356

          k = 0.0000 0.3849 0.0000 (  4251 PWs)   bands (ev):

   -21.5823 -13.9085  -9.9869  -9.0164   1.4123   2.8042   3.6913   4.4590

          k = 0.0000 0.4619 0.0000 (  4236 PWs)   bands (ev):

   -20.4065 -15.7162 -10.4277  -7.7563  -0.5348   4.3803   4.7177   5.3727

          k = 0.0000 0.5389 0.0000 (  4262 PWs)   bands (ev):

   -19.0777 -17.3735 -10.6547  -6.6924  -1.9683   4.5132   6.4418   7.3473

          k = 0.0667 0.1155 0.0000 (  4193 PWs)   bands (ev):

   -23.9939 -11.8799  -8.1486  -7.6928  -0.5419   0.2598   1.0451   1.3992

          k = 0.0667 0.1925 0.0000 (  4191 PWs)   bands (ev):

   -23.5502 -11.3391  -9.4585  -8.4952   0.0692   0.8796   1.6695   2.0206

          k = 0.0667 0.2694 0.0000 (  4211 PWs)   bands (ev):

   -22.8890 -11.1284 -10.5415  -9.3222   0.9847   1.8043   2.6058   2.9474

          k = 0.0667 0.3464 0.0000 (  4244 PWs)   bands (ev):

   -22.0157 -12.9483 -10.0421  -9.5095   2.2016   2.3432   3.0915   3.8526

          k = 0.0667 0.4234 0.0000 (  4242 PWs)   bands (ev):

   -20.9384 -14.7729 -10.5872  -8.2950   0.3685   3.7115   4.5978   5.1681

          k = 0.0667 0.5004 0.0000 (  4250 PWs)   bands (ev):

   -19.6773 -16.5079 -10.9255  -7.0602  -1.3816   5.0097   5.5713   6.4219

          k = 0.0667 0.5774 0.0000 (  4251 PWs)   bands (ev):

   -18.5272 -17.8200 -11.0403  -6.4005  -2.2199   4.9918   7.5424   7.6911

          k = 0.1333 0.2309 0.0000 (  4223 PWs)   bands (ev):

   -22.9989 -10.6730 -10.5952  -9.5591   0.8332   1.6522   2.4503   2.7959

          k = 0.1333 0.3079 0.0000 (  4248 PWs)   bands (ev):

   -22.2338 -12.0646 -10.5393  -9.7594   1.9003   2.7131   3.0306   3.5429

          k = 0.1333 0.3849 0.0000 (  4259 PWs)   bands (ev):

   -21.2614 -13.7603 -11.2536  -8.6319   1.1381   3.2662   4.1142   4.9460

          k = 0.1333 0.4619 0.0000 (  4254 PWs)   bands (ev):

   -20.0955 -15.4848 -11.7242  -7.3721  -0.6794   4.9204   5.7720   6.4068

          k = 0.1333 0.5389 0.0000 (  4261 PWs)   bands (ev):

   -18.7847 -17.0931 -11.9596  -6.2849  -2.0681   6.3042   6.8828   7.6164

          k = 0.2000 0.3464 0.0000 (  4263 PWs)   bands (ev):

   -21.3696 -13.0928 -11.8326  -8.7453   1.4615   3.1162   3.9443   4.7913

          k = 0.2000 0.4234 0.0000 (  4273 PWs)   bands (ev):

   -20.3079 -14.4637 -12.6973  -7.5462  -0.1767   4.6246   5.4226   6.3493

          k = 0.2000 0.5004 0.0000 (  4274 PWs)   bands (ev):

   -19.0732 -16.0184 -13.1280  -6.2923  -1.7206   6.4064   6.9877   8.1220

          k = 0.2000 0.5774 0.0000 (  4263 PWs)   bands (ev):

   -17.9734 -17.2416 -13.2614  -5.5682  -2.5460   7.7044   8.0791   8.3241

          k = 0.2667 0.4619 0.0000 (  4273 PWs)   bands (ev):

   -19.1742 -15.2266 -13.9640  -6.3106  -1.5412   6.2584   6.7306   8.0237

          k = 0.2667 0.5389 0.0000 (  4271 PWs)   bands (ev):

   -17.9225 -16.3890 -14.5279  -5.1175  -2.7900   7.0942   8.1074   9.5774

          k = 0.3333 0.5774 0.0000 (  4287 PWs)   bands (ev):

   -16.8689 -16.8689 -15.3201  -3.9284  -3.9284   6.8581   9.6164   9.6166

     the Fermi energy is    -3.9284 ev

!    total energy              =     -22.77753978 Ry
     estimated scf accuracy    <          3.9E-10 Ry
     smearing contrib. (-TS)   =      -0.00005015 Ry
     internal energy E=F+TS    =     -22.77748963 Ry

     The total energy is F=E-TS. E is the sum of the following terms:
     one-electron contribution =    -415.08987100 Ry
     hartree contribution      =     208.23842884 Ry
     xc contribution           =      -7.16335362 Ry
     ewald contribution        =     191.23730615 Ry

     convergence has been achieved in   6 iterations

     Forces acting on atoms (cartesian axes, Ry/au):

     atom    1 type  1   force =     0.00000000    0.00000000    0.00000000
     atom    2 type  1   force =     0.00000000    0.00000000    0.00000000

     Total force =     0.000000     Total SCF correction =     0.000000


     Computing stress (Cartesian axis) and pressure

          total   stress  (Ry/bohr**3)                   (kbar)     P=       33.87
   0.00040419   0.00000000   0.00000000           59.46        0.00        0.00
   0.00000000   0.00040419  -0.00000000            0.00       59.46       -0.00
   0.00000000  -0.00000000  -0.00011770            0.00       -0.00      -17.31


     Writing output data file ./work/LiC450.save/
 
     init_run     :      0.07s CPU      0.08s WALL (       1 calls)
     electrons    :      1.07s CPU      1.18s WALL (       1 calls)
     forces       :      0.01s CPU      0.01s WALL (       1 calls)
     stress       :      0.02s CPU      0.02s WALL (       1 calls)

     Called by init_run:
     wfcinit      :      0.05s CPU      0.06s WALL (       1 calls)
     potinit      :      0.01s CPU      0.01s WALL (       1 calls)
     hinit0       :      0.00s CPU      0.00s WALL (       1 calls)

     Called by electrons:
     c_bands      :      0.96s CPU      1.04s WALL (       6 calls)
     sum_band     :      0.09s CPU      0.10s WALL (       6 calls)
     v_of_rho     :      0.01s CPU      0.02s WALL (       7 calls)
     mix_rho      :      0.00s CPU      0.00s WALL (       6 calls)

     Called by c_bands:
     init_us_2    :      0.01s CPU      0.01s WALL (     405 calls)
     cegterg      :      0.94s CPU      1.02s WALL (     162 calls)

     Called by *egterg:
     cdiaghg      :      0.11s CPU      0.11s WALL (    1171 calls)
     h_psi        :      0.79s CPU      0.86s WALL (    1198 calls)
     g_psi        :      0.00s CPU      0.00s WALL (    1009 calls)

     Called by h_psi:
     h_psi:calbec :      0.03s CPU      0.04s WALL (    1198 calls)
     vloc_psi     :      0.74s CPU      0.81s WALL (    1198 calls)
     add_vuspsi   :      0.01s CPU      0.01s WALL (    1198 calls)

     General routines
     calbec       :      0.04s CPU      0.04s WALL (    1333 calls)
     fft          :      0.01s CPU      0.01s WALL (      77 calls)
     ffts         :      0.00s CPU      0.00s WALL (       6 calls)
     fftw         :      0.78s CPU      0.84s WALL (   13188 calls)
 
     Parallel routines
     fft_scatt_xy :      0.06s CPU      0.06s WALL (   13271 calls)
     fft_scatt_yz :      0.41s CPU      0.44s WALL (   13271 calls)
 
     PWSCF        :      1.20s CPU      1.54s WALL

 
   This run was terminated on:  10:37:49  22Jan2024            

=------------------------------------------------------------------------------=
   JOB DONE.
=------------------------------------------------------------------------------=
