
     Program PWSCF v.6.7MaX starts on 22Jan2024 at 11: 1:46 

     This program is part of the open-source Quantum ESPRESSO suite
     for quantum simulation of materials; please cite
         "P. Giannozzi et al., J. Phys.:Condens. Matter 21 395502 (2009);
         "P. Giannozzi et al., J. Phys.:Condens. Matter 29 465901 (2017);
          URL http://www.quantum-espresso.org", 
     in publications or presentations arising from this work. More details at
     http://www.quantum-espresso.org/quote

     Parallel version (MPI), running on    32 processors

     MPI processes distributed on     1 nodes
     R & G space division:  proc/nbgrp/npool/nimage =      32
     Waiting for input...
     Reading input from standard input
Warning: card &CELL ignored
Warning: card  CELL_DYNAMICS = 'BFGS', ignored
Warning: card  PRESS = 0.0, ignored
Warning: card  PRESS_CONV_THR = 1D-3, ignored
Warning: card  CELL_DOFREE='2DXY' ignored
Warning: card / ignored

     Current dimensions of program PWSCF are:
     Max number of different atomic species (ntypx) = 10
     Max number of k-points (npk) =  40000
     Max angular momentum in pseudopotentials (lmaxx) =  3
     Message from routine read_pp_mesh:
     mesh size missing, using the one in header

     Subspace diagonalization in iterative solution of the eigenvalue problem:
     a serial algorithm will be used

 
     Parallelization info
     --------------------
     sticks:   dense  smooth     PW     G-vecs:    dense   smooth      PW
     Min           9       9      3                 1189     1189     207
     Max          10      10      5                 1248     1248     225
     Sum         313     313    109                39303    39303    6967
 


     bravais-lattice index     =            4
     lattice parameter (alat)  =       4.8600  a.u.
     unit-cell volume          =     828.4345 (a.u.)^3
     number of atoms/cell      =            2
     number of atomic types    =            1
     number of electrons       =         8.00
     number of Kohn-Sham states=            8
     kinetic-energy cutoff     =      50.0000  Ry
     charge density cutoff     =     200.0000  Ry
     scf convergence threshold =      1.0E-08
     mixing beta               =       0.7000
     number of iterations used =            8  plain     mixing
     Exchange-correlation= PBE
                           (   1   4   3   4   0   0   0)

     celldm(1)=   4.860000  celldm(2)=   0.000000  celldm(3)=   8.333333
     celldm(4)=   0.000000  celldm(5)=   0.000000  celldm(6)=   0.000000

     crystal axes: (cart. coord. in units of alat)
               a(1) = (   1.000000   0.000000   0.000000 )  
               a(2) = (  -0.500000   0.866025   0.000000 )  
               a(3) = (   0.000000   0.000000   8.333333 )  

     reciprocal axes: (cart. coord. in units 2 pi/alat)
               b(1) = (  1.000000  0.577350  0.000000 )  
               b(2) = (  0.000000  1.154701  0.000000 )  
               b(3) = (  0.000000  0.000000  0.120000 )  


     PseudoPot. # 1 for C  read from file:
     /home/yhkim/qe-6.7/pseudo/ONCV1/1.2/C_ONCV_PBE-1.2.upf
     MD5 check sum: 1a5f83a7b1f58d24996abe00ed223ac6
     Pseudo is Norm-conserving, Zval =  4.0
     Generated using ONCVPSP code by D. R. Hamann
     Using radial grid of  602 points,  4 beta functions with: 
                l(1) =   0
                l(2) =   0
                l(3) =   1
                l(4) =   1

     atomic species   valence    mass     pseudopotential
        C              4.00    12.01070     C ( 1.00)

     24 Sym. Ops., with inversion, found



   Cartesian axes

     site n.     atom                  positions (alat units)
         1           C   tau(   1) = (  -0.0000000   0.5773503   4.1666667  )
         2           C   tau(   2) = (   0.5000000   0.2886751   4.1666667  )

     number of k points=    27  Methfessel-Paxton smearing, width (Ry)=  0.0100
                       cart. coord. in units 2pi/alat
        k(    1) = (   0.0000000   0.0000000   0.0000000), wk =   0.0088889
        k(    2) = (   0.0000000   0.0769800   0.0000000), wk =   0.0533333
        k(    3) = (   0.0000000   0.1539601   0.0000000), wk =   0.0533333
        k(    4) = (   0.0000000   0.2309401   0.0000000), wk =   0.0533333
        k(    5) = (   0.0000000   0.3079201   0.0000000), wk =   0.0533333
        k(    6) = (   0.0000000   0.3849002   0.0000000), wk =   0.0533333
        k(    7) = (   0.0000000   0.4618802   0.0000000), wk =   0.0533333
        k(    8) = (   0.0000000   0.5388603   0.0000000), wk =   0.0533333
        k(    9) = (   0.0666667   0.1154701   0.0000000), wk =   0.0533333
        k(   10) = (   0.0666667   0.1924501   0.0000000), wk =   0.1066667
        k(   11) = (   0.0666667   0.2694301   0.0000000), wk =   0.1066667
        k(   12) = (   0.0666667   0.3464102   0.0000000), wk =   0.1066667
        k(   13) = (   0.0666667   0.4233902   0.0000000), wk =   0.1066667
        k(   14) = (   0.0666667   0.5003702   0.0000000), wk =   0.1066667
        k(   15) = (   0.0666667   0.5773503   0.0000000), wk =   0.0533333
        k(   16) = (   0.1333333   0.2309401   0.0000000), wk =   0.0533333
        k(   17) = (   0.1333333   0.3079201   0.0000000), wk =   0.1066667
        k(   18) = (   0.1333333   0.3849002   0.0000000), wk =   0.1066667
        k(   19) = (   0.1333333   0.4618802   0.0000000), wk =   0.1066667
        k(   20) = (   0.1333333   0.5388603   0.0000000), wk =   0.1066667
        k(   21) = (   0.2000000   0.3464102   0.0000000), wk =   0.0533333
        k(   22) = (   0.2000000   0.4233902   0.0000000), wk =   0.1066667
        k(   23) = (   0.2000000   0.5003702   0.0000000), wk =   0.1066667
        k(   24) = (   0.2000000   0.5773503   0.0000000), wk =   0.0533333
        k(   25) = (   0.2666667   0.4618802   0.0000000), wk =   0.0533333
        k(   26) = (   0.2666667   0.5388603   0.0000000), wk =   0.1066667
        k(   27) = (   0.3333333   0.5773503   0.0000000), wk =   0.0177778

     Dense  grid:    39303 G-vectors     FFT dimensions: (  24,  24, 192)

     Estimated max dynamical RAM per process >       1.71 MB

     Estimated total dynamical RAM >      54.69 MB
 ----2D----2D----2D----2D----2D----2D----2D----2D----2D----2D----2D----2D
  The code is running with the 2D cutoff
  Please refer to:
  Sohier, T., Calandra, M., & Mauri, F. (2017), 
  Density functional perturbation theory for gated two-dimensional heterostructu
 res:
  Theoretical developments and application to flexural phonons in graphene.
  Physical Review B, 96(7), 75448. https://doi.org/10.1103/PhysRevB.96.075448
 ----2D----2D----2D----2D----2D----2D----2D----2D----2D----2D----2D----2D

     Initial potential from superposition of free atoms

     starting charge    7.98607, renormalised to    8.00000

     negative rho (up, down):  1.200E-04 0.000E+00
     Starting wfcs are random

     total cpu time spent up to now is        0.1 secs

     Self-consistent Calculation

     iteration #  1     ecut=    50.00 Ry     beta= 0.70
     Davidson diagonalization with overlap
     ethr =  1.00E-02,  avg # of iterations = 12.0

     negative rho (up, down):  4.503E-08 0.000E+00

     total cpu time spent up to now is        0.6 secs

     total energy              =     -22.75210674 Ry
     estimated scf accuracy    <       0.11393335 Ry

     iteration #  2     ecut=    50.00 Ry     beta= 0.70
     Davidson diagonalization with overlap
     ethr =  1.42E-03,  avg # of iterations =  2.1

     total cpu time spent up to now is        0.7 secs

     total energy              =     -22.77149497 Ry
     estimated scf accuracy    <       0.00193658 Ry

     iteration #  3     ecut=    50.00 Ry     beta= 0.70
     Davidson diagonalization with overlap
     ethr =  2.42E-05,  avg # of iterations =  8.5

     total cpu time spent up to now is        1.0 secs

     total energy              =     -22.77454316 Ry
     estimated scf accuracy    <       0.00012566 Ry

     iteration #  4     ecut=    50.00 Ry     beta= 0.70
     Davidson diagonalization with overlap
     c_bands:  1 eigenvalues not converged
     ethr =  1.57E-06,  avg # of iterations =  5.8

     total cpu time spent up to now is        1.2 secs

     total energy              =     -22.77457929 Ry
     estimated scf accuracy    <       0.00000016 Ry

     iteration #  5     ecut=    50.00 Ry     beta= 0.70
     Davidson diagonalization with overlap
     ethr =  2.01E-09,  avg # of iterations =  4.8

     total cpu time spent up to now is        1.3 secs

     total energy              =     -22.77458212 Ry
     estimated scf accuracy    <       0.00000002 Ry

     iteration #  6     ecut=    50.00 Ry     beta= 0.70
     Davidson diagonalization with overlap
     ethr =  3.01E-10,  avg # of iterations =  2.0

     total cpu time spent up to now is        1.5 secs

     End of self-consistent calculation

          k = 0.0000 0.0000 0.0000 (  5035 PWs)   bands (ev):

   -23.1426 -11.3989  -7.6865  -7.6865  -0.9535  -0.1993   0.5978   0.9510

          k = 0.0000 0.0770 0.0000 (  5037 PWs)   bands (ev):

   -23.0454 -11.2855  -8.0962  -7.8807  -0.8223  -0.0667   0.7316   1.0839

          k = 0.0000 0.1540 0.0000 (  5009 PWs)   bands (ev):

   -22.7546 -10.9471  -9.1709  -8.3771  -0.4286   0.3305   1.1330   1.4823

          k = 0.0000 0.2309 0.0000 (  4983 PWs)   bands (ev):

   -22.2725 -10.6288 -10.3928  -8.9998   0.2268   0.9892   1.8013   2.1421

          k = 0.0000 0.3079 0.0000 (  4976 PWs)   bands (ev):

   -21.6039 -12.2483  -9.6363  -9.6105   1.1411   1.4273   1.9507   2.2706

          k = 0.0000 0.3849 0.0000 (  4942 PWs)   bands (ev):

   -20.7577 -13.8871 -10.1189  -8.7074  -0.1559   1.9408   2.3326   3.1097

          k = 0.0000 0.4619 0.0000 (  4922 PWs)   bands (ev):

   -19.7566 -15.4485 -10.4791  -7.6910  -1.6821   1.7204   3.7480   4.5421

          k = 0.0000 0.5389 0.0000 (  4882 PWs)   bands (ev):

   -18.7150 -16.7777 -10.6631  -6.8528  -2.7916   1.6005   5.4085   6.2024

          k = 0.0667 0.1155 0.0000 (  5023 PWs)   bands (ev):

   -22.8514 -11.0599  -8.7925  -8.2711  -0.5597   0.1982   0.9992   1.3497

          k = 0.0667 0.1925 0.0000 (  4978 PWs)   bands (ev):

   -22.4650 -10.6131  -9.9798  -8.9115  -0.0350   0.7267   1.5344   1.8799

          k = 0.0667 0.2694 0.0000 (  4970 PWs)   bands (ev):

   -21.8895 -11.4625  -9.9562  -9.5878   0.7506   1.5078   2.1250   2.3355

          k = 0.0667 0.3464 0.0000 (  4947 PWs)   bands (ev):

   -21.1316 -13.0607 -10.1814  -9.1093   0.5676   1.7920   2.5480   2.5802

          k = 0.0667 0.4234 0.0000 (  4937 PWs)   bands (ev):

   -20.2050 -14.6476 -10.6339  -8.1219  -0.9932   2.2618   3.1040   3.8834

          k = 0.0667 0.5004 0.0000 (  4896 PWs)   bands (ev):

   -19.1539 -16.1144 -10.9145  -7.1348  -2.3568   2.0880   4.6446   5.4234

          k = 0.0667 0.5774 0.0000 (  4900 PWs)   bands (ev):

   -18.3851 -17.0250 -11.0101  -6.6232  -3.0003   2.0267   6.3220   6.4908

          k = 0.1333 0.2309 0.0000 (  4969 PWs)   bands (ev):

   -21.9850 -11.0404 -10.0635  -9.7601   0.6202   1.3853   2.2036   2.3680

          k = 0.1333 0.3079 0.0000 (  4956 PWs)   bands (ev):

   -21.3200 -12.3495 -10.5759  -9.3128   1.0192   1.5350   2.3045   3.1385

          k = 0.1333 0.3849 0.0000 (  4940 PWs)   bands (ev):

   -20.4795 -13.8155 -11.1978  -8.3916  -0.4372   2.7032   3.4732   3.5814

          k = 0.1333 0.4619 0.0000 (  4916 PWs)   bands (ev):

   -19.4866 -15.2869 -11.6104  -7.3747  -1.8599   3.3428   4.1329   4.8695

          k = 0.1333 0.5389 0.0000 (  4918 PWs)   bands (ev):

   -18.4548 -16.5750 -11.8167  -6.5155  -2.9376   3.2235   5.7685   6.3734

          k = 0.2000 0.3464 0.0000 (  4965 PWs)   bands (ev):

   -20.5717 -13.3399 -11.6104  -8.4837  -0.2177   2.5758   3.3317   4.2073

          k = 0.2000 0.4234 0.0000 (  4941 PWs)   bands (ev):

   -19.6601 -14.5258 -12.3638  -7.5087  -1.5185   3.8631   4.5739   5.0852

          k = 0.2000 0.5004 0.0000 (  4929 PWs)   bands (ev):

   -18.6298 -15.8006 -12.7763  -6.5024  -2.7380   4.8804   5.3967   5.8530

          k = 0.2000 0.5774 0.0000 (  4934 PWs)   bands (ev):

   -17.8679 -16.6580 -12.9068  -5.9351  -3.3802   4.8222   6.4251   6.9037

          k = 0.2667 0.4619 0.0000 (  4944 PWs)   bands (ev):

   -18.7001 -15.3140 -13.3298  -6.5098  -2.6326   5.2453   5.6499   6.5358

          k = 0.2667 0.5389 0.0000 (  4943 PWs)   bands (ev):

   -17.6966 -16.2485 -13.8195  -5.5541  -3.6410   6.0033   6.4548   6.7954

          k = 0.3333 0.5774 0.0000 (  4926 PWs)   bands (ev):

   -16.8385 -16.8385 -14.2822  -4.5833  -4.5833   5.8563   7.2991   7.2991

     the Fermi energy is    -4.5833 ev

!    total energy              =     -22.77458213 Ry
     estimated scf accuracy    <          4.4E-10 Ry
     smearing contrib. (-TS)   =      -0.00005015 Ry
     internal energy E=F+TS    =     -22.77453198 Ry

     The total energy is F=E-TS. E is the sum of the following terms:
     one-electron contribution =    -355.25838727 Ry
     hartree contribution      =     178.17078300 Ry
     xc contribution           =      -6.83489176 Ry
     ewald contribution        =     161.14796405 Ry

     convergence has been achieved in   6 iterations

     Forces acting on atoms (cartesian axes, Ry/au):

     atom    1 type  1   force =     0.00000000    0.00000000    0.00000000
     atom    2 type  1   force =     0.00000000    0.00000000    0.00000000

     Total force =     0.000000     Total SCF correction =     0.000000


     Computing stress (Cartesian axis) and pressure

          total   stress  (Ry/bohr**3)                   (kbar)     P=      -58.38
  -0.00054773  -0.00000000   0.00000000          -80.57       -0.00        0.00
  -0.00000000  -0.00054773   0.00000000           -0.00      -80.57        0.00
   0.00000000   0.00000000  -0.00009515            0.00        0.00      -14.00


     Writing output data file ./work/LiC486.save/
 
     init_run     :      0.07s CPU      0.09s WALL (       1 calls)
     electrons    :      1.26s CPU      1.37s WALL (       1 calls)
     forces       :      0.01s CPU      0.01s WALL (       1 calls)
     stress       :      0.02s CPU      0.02s WALL (       1 calls)

     Called by init_run:
     wfcinit      :      0.06s CPU      0.07s WALL (       1 calls)
     potinit      :      0.00s CPU      0.01s WALL (       1 calls)
     hinit0       :      0.00s CPU      0.00s WALL (       1 calls)

     Called by electrons:
     c_bands      :      1.13s CPU      1.22s WALL (       6 calls)
     sum_band     :      0.11s CPU      0.12s WALL (       6 calls)
     v_of_rho     :      0.01s CPU      0.01s WALL (       7 calls)
     mix_rho      :      0.00s CPU      0.00s WALL (       6 calls)

     Called by c_bands:
     init_us_2    :      0.01s CPU      0.01s WALL (     405 calls)
     cegterg      :      1.11s CPU      1.20s WALL (     162 calls)

     Called by *egterg:
     cdiaghg      :      0.10s CPU      0.11s WALL (    1112 calls)
     h_psi        :      0.97s CPU      1.05s WALL (    1139 calls)
     g_psi        :      0.00s CPU      0.00s WALL (     950 calls)

     Called by h_psi:
     h_psi:calbec :      0.04s CPU      0.04s WALL (    1139 calls)
     vloc_psi     :      0.92s CPU      0.98s WALL (    1139 calls)
     add_vuspsi   :      0.01s CPU      0.01s WALL (    1139 calls)

     General routines
     calbec       :      0.04s CPU      0.05s WALL (    1274 calls)
     fft          :      0.01s CPU      0.01s WALL (      77 calls)
     ffts         :      0.00s CPU      0.00s WALL (       6 calls)
     fftw         :      0.97s CPU      1.04s WALL (   13264 calls)
 
     Parallel routines
     fft_scatt_xy :      0.06s CPU      0.07s WALL (   13347 calls)
     fft_scatt_yz :      0.58s CPU      0.62s WALL (   13347 calls)
 
     PWSCF        :      1.41s CPU      1.78s WALL

 
   This run was terminated on:  11: 1:47  22Jan2024            

=------------------------------------------------------------------------------=
   JOB DONE.
=------------------------------------------------------------------------------=
