
     Program PWSCF v.6.7MaX starts on 22Jan2024 at 10:37:41 

     This program is part of the open-source Quantum ESPRESSO suite
     for quantum simulation of materials; please cite
         "P. Giannozzi et al., J. Phys.:Condens. Matter 21 395502 (2009);
         "P. Giannozzi et al., J. Phys.:Condens. Matter 29 465901 (2017);
          URL http://www.quantum-espresso.org", 
     in publications or presentations arising from this work. More details at
     http://www.quantum-espresso.org/quote

     Parallel version (MPI), running on    32 processors

     MPI processes distributed on     1 nodes
     R & G space division:  proc/nbgrp/npool/nimage =      32
     Waiting for input...
     Reading input from standard input
Warning: card &CELL ignored
Warning: card  CELL_DYNAMICS = 'BFGS', ignored
Warning: card  PRESS = 0.0, ignored
Warning: card  PRESS_CONV_THR = 1D-3, ignored
Warning: card  CELL_DOFREE='2DXY' ignored
Warning: card / ignored

     Current dimensions of program PWSCF are:
     Max number of different atomic species (ntypx) = 10
     Max number of k-points (npk) =  40000
     Max angular momentum in pseudopotentials (lmaxx) =  3
     Message from routine read_pp_mesh:
     mesh size missing, using the one in header

     Subspace diagonalization in iterative solution of the eigenvalue problem:
     a serial algorithm will be used

 
     Parallelization info
     --------------------
     sticks:   dense  smooth     PW     G-vecs:    dense   smooth      PW
     Min           7       7      2                  908      908     160
     Max           9       9      3                  944      944     191
     Sum         253     253     85                29643    29643    5577
 


     bravais-lattice index     =            4
     lattice parameter (alat)  =       4.2000  a.u.
     unit-cell volume          =     618.7059 (a.u.)^3
     number of atoms/cell      =            2
     number of atomic types    =            1
     number of electrons       =         8.00
     number of Kohn-Sham states=            8
     kinetic-energy cutoff     =      50.0000  Ry
     charge density cutoff     =     200.0000  Ry
     scf convergence threshold =      1.0E-08
     mixing beta               =       0.7000
     number of iterations used =            8  plain     mixing
     Exchange-correlation= PBE
                           (   1   4   3   4   0   0   0)

     celldm(1)=   4.200000  celldm(2)=   0.000000  celldm(3)=   9.642857
     celldm(4)=   0.000000  celldm(5)=   0.000000  celldm(6)=   0.000000

     crystal axes: (cart. coord. in units of alat)
               a(1) = (   1.000000   0.000000   0.000000 )  
               a(2) = (  -0.500000   0.866025   0.000000 )  
               a(3) = (   0.000000   0.000000   9.642857 )  

     reciprocal axes: (cart. coord. in units 2 pi/alat)
               b(1) = (  1.000000  0.577350  0.000000 )  
               b(2) = (  0.000000  1.154701  0.000000 )  
               b(3) = (  0.000000  0.000000  0.103704 )  


     PseudoPot. # 1 for C  read from file:
     /home/yhkim/qe-6.7/pseudo/ONCV1/1.2/C_ONCV_PBE-1.2.upf
     MD5 check sum: 1a5f83a7b1f58d24996abe00ed223ac6
     Pseudo is Norm-conserving, Zval =  4.0
     Generated using ONCVPSP code by D. R. Hamann
     Using radial grid of  602 points,  4 beta functions with: 
                l(1) =   0
                l(2) =   0
                l(3) =   1
                l(4) =   1

     atomic species   valence    mass     pseudopotential
        C              4.00    12.01070     C ( 1.00)

     24 Sym. Ops., with inversion, found



   Cartesian axes

     site n.     atom                  positions (alat units)
         1           C   tau(   1) = (  -0.0000000   0.5773503   4.8214286  )
         2           C   tau(   2) = (   0.5000000   0.2886751   4.8214286  )

     number of k points=    27  Methfessel-Paxton smearing, width (Ry)=  0.0100
                       cart. coord. in units 2pi/alat
        k(    1) = (   0.0000000   0.0000000   0.0000000), wk =   0.0088889
        k(    2) = (   0.0000000   0.0769800   0.0000000), wk =   0.0533333
        k(    3) = (   0.0000000   0.1539601   0.0000000), wk =   0.0533333
        k(    4) = (   0.0000000   0.2309401   0.0000000), wk =   0.0533333
        k(    5) = (   0.0000000   0.3079201   0.0000000), wk =   0.0533333
        k(    6) = (   0.0000000   0.3849002   0.0000000), wk =   0.0533333
        k(    7) = (   0.0000000   0.4618802   0.0000000), wk =   0.0533333
        k(    8) = (   0.0000000   0.5388603   0.0000000), wk =   0.0533333
        k(    9) = (   0.0666667   0.1154701   0.0000000), wk =   0.0533333
        k(   10) = (   0.0666667   0.1924501   0.0000000), wk =   0.1066667
        k(   11) = (   0.0666667   0.2694301   0.0000000), wk =   0.1066667
        k(   12) = (   0.0666667   0.3464102   0.0000000), wk =   0.1066667
        k(   13) = (   0.0666667   0.4233902   0.0000000), wk =   0.1066667
        k(   14) = (   0.0666667   0.5003702   0.0000000), wk =   0.1066667
        k(   15) = (   0.0666667   0.5773503   0.0000000), wk =   0.0533333
        k(   16) = (   0.1333333   0.2309401   0.0000000), wk =   0.0533333
        k(   17) = (   0.1333333   0.3079201   0.0000000), wk =   0.1066667
        k(   18) = (   0.1333333   0.3849002   0.0000000), wk =   0.1066667
        k(   19) = (   0.1333333   0.4618802   0.0000000), wk =   0.1066667
        k(   20) = (   0.1333333   0.5388603   0.0000000), wk =   0.1066667
        k(   21) = (   0.2000000   0.3464102   0.0000000), wk =   0.0533333
        k(   22) = (   0.2000000   0.4233902   0.0000000), wk =   0.1066667
        k(   23) = (   0.2000000   0.5003702   0.0000000), wk =   0.1066667
        k(   24) = (   0.2000000   0.5773503   0.0000000), wk =   0.0533333
        k(   25) = (   0.2666667   0.4618802   0.0000000), wk =   0.0533333
        k(   26) = (   0.2666667   0.5388603   0.0000000), wk =   0.1066667
        k(   27) = (   0.3333333   0.5773503   0.0000000), wk =   0.0177778

     Dense  grid:    29643 G-vectors     FFT dimensions: (  20,  20, 192)

     Estimated max dynamical RAM per process >       1.36 MB

     Estimated total dynamical RAM >      43.48 MB
 ----2D----2D----2D----2D----2D----2D----2D----2D----2D----2D----2D----2D
  The code is running with the 2D cutoff
  Please refer to:
  Sohier, T., Calandra, M., & Mauri, F. (2017), 
  Density functional perturbation theory for gated two-dimensional heterostructu
 res:
  Theoretical developments and application to flexural phonons in graphene.
  Physical Review B, 96(7), 75448. https://doi.org/10.1103/PhysRevB.96.075448
 ----2D----2D----2D----2D----2D----2D----2D----2D----2D----2D----2D----2D

     Initial potential from superposition of free atoms

     starting charge    7.98607, renormalised to    8.00000

     negative rho (up, down):  1.060E-04 0.000E+00
     Starting wfcs are random

     total cpu time spent up to now is        0.1 secs

     Self-consistent Calculation

     iteration #  1     ecut=    50.00 Ry     beta= 0.70
     Davidson diagonalization with overlap
     ethr =  1.00E-02,  avg # of iterations = 11.1

     negative rho (up, down):  1.770E-07 0.000E+00

     total cpu time spent up to now is        0.5 secs

     total energy              =     -22.60356109 Ry
     estimated scf accuracy    <       0.38072626 Ry

     iteration #  2     ecut=    50.00 Ry     beta= 0.70
     Davidson diagonalization with overlap
     ethr =  4.76E-03,  avg # of iterations =  2.1

     total cpu time spent up to now is        0.7 secs

     total energy              =     -22.66055962 Ry
     estimated scf accuracy    <       0.00265284 Ry

     iteration #  3     ecut=    50.00 Ry     beta= 0.70
     Davidson diagonalization with overlap
     ethr =  3.32E-05,  avg # of iterations = 11.1

     total cpu time spent up to now is        0.9 secs

     total energy              =     -22.66213826 Ry
     estimated scf accuracy    <       0.00017783 Ry

     iteration #  4     ecut=    50.00 Ry     beta= 0.70
     Davidson diagonalization with overlap
     ethr =  2.22E-06,  avg # of iterations =  5.3

     total cpu time spent up to now is        1.1 secs

     total energy              =     -22.66217504 Ry
     estimated scf accuracy    <       0.00000173 Ry

     iteration #  5     ecut=    50.00 Ry     beta= 0.70
     Davidson diagonalization with overlap
     ethr =  2.16E-08,  avg # of iterations =  3.7

     total cpu time spent up to now is        1.3 secs

     total energy              =     -22.66217756 Ry
     estimated scf accuracy    <       0.00000014 Ry

     iteration #  6     ecut=    50.00 Ry     beta= 0.70
     Davidson diagonalization with overlap
     ethr =  1.74E-09,  avg # of iterations =  2.1

     total cpu time spent up to now is        1.4 secs

     End of self-consistent calculation

          k = 0.0000 0.0000 0.0000 (  3727 PWs)   bands (ev):

   -25.4075 -13.1982  -6.0698  -1.0338  -0.2111   0.5591   0.9143   2.2378

          k = 0.0000 0.0770 0.0000 (  3725 PWs)   bands (ev):

   -25.2831 -13.0366  -6.5595  -6.3789  -0.8594  -0.0322   0.7381   1.0934

          k = 0.0000 0.1540 0.0000 (  3702 PWs)   bands (ev):

   -24.9107 -12.5564  -7.8656  -7.1471  -0.3349   0.5037   1.2756   1.6305

          k = 0.0000 0.2309 0.0000 (  3692 PWs)   bands (ev):

   -24.2927 -11.7654  -9.6767  -8.0908   0.5403   1.3950   2.1716   2.5239

          k = 0.0000 0.3079 0.0000 (  3674 PWs)   bands (ev):

   -23.4325 -11.7188 -10.6758  -8.9962   1.7644   2.6332   3.4260   3.7636

          k = 0.0000 0.3849 0.0000 (  3688 PWs)   bands (ev):

   -22.3372 -13.8125  -9.7435  -9.3265   2.9786   3.3337   4.3139   5.0376

          k = 0.0000 0.4619 0.0000 (  3718 PWs)   bands (ev):

   -21.0152 -15.8418 -10.2728  -7.8148   0.6139   5.2393   6.2285   6.9939

          k = 0.0000 0.5389 0.0000 (  3702 PWs)   bands (ev):

   -19.4794 -17.7409 -10.5409  -6.5049  -1.1628   7.3368   7.7249   8.5183

          k = 0.0667 0.1155 0.0000 (  3699 PWs)   bands (ev):

   -25.0347 -12.7157  -7.3804  -6.9895  -0.5096   0.3251   1.0964   1.4516

          k = 0.0667 0.1925 0.0000 (  3693 PWs)   bands (ev):

   -24.5395 -12.0797  -8.8281  -7.9567   0.1910   1.0390   1.8133   2.1669

          k = 0.0667 0.2694 0.0000 (  3679 PWs)   bands (ev):

   -23.8005 -11.1379 -10.6926  -8.9355   1.2416   2.1061   2.8889   3.2369

          k = 0.0667 0.3464 0.0000 (  3686 PWs)   bands (ev):

   -22.8231 -12.7311  -9.9144  -9.7822   2.6395   3.4729   4.2546   4.3226

          k = 0.0667 0.4234 0.0000 (  3697 PWs)   bands (ev):

   -21.6147 -14.7790 -10.4246  -8.4646   1.7466   4.3795   5.3373   6.1124

          k = 0.0667 0.5004 0.0000 (  3712 PWs)   bands (ev):

   -20.1863 -16.7377 -10.8236  -6.9686  -0.4084   6.4483   7.4480   8.0672

          k = 0.0667 0.5774 0.0000 (  3692 PWs)   bands (ev):

   -18.6152 -18.4866 -10.9581  -6.1457  -1.4587   8.0284   8.8183   8.9724

          k = 0.1333 0.2309 0.0000 (  3687 PWs)   bands (ev):

   -23.9235 -11.2927 -10.0424  -9.2381   1.0681   1.9296   2.7102   3.0600

          k = 0.1333 0.3079 0.0000 (  3703 PWs)   bands (ev):

   -23.0673 -11.6908 -10.3622 -10.2122   2.2938   3.1688   3.9655   4.3021

          k = 0.1333 0.3849 0.0000 (  3699 PWs)   bands (ev):

   -21.9776 -13.6183 -11.1559  -8.8704   2.7560   3.8637   4.7817   5.5785

          k = 0.1333 0.4619 0.0000 (  3701 PWs)   bands (ev):

   -20.6640 -15.5714 -11.6830  -7.3595   0.5229   5.7707   6.7029   7.5472

          k = 0.1333 0.5389 0.0000 (  3694 PWs)   bands (ev):

   -19.1408 -17.4305 -11.9484  -6.0258  -1.2011   7.9973   8.8924   9.4722

          k = 0.2000 0.3464 0.0000 (  3703 PWs)   bands (ev):

   -22.0990 -12.7362 -11.9207  -9.0088   3.2088   3.6916   4.5778   5.4006

          k = 0.2000 0.4234 0.0000 (  3699 PWs)   bands (ev):

   -20.9045 -14.3342 -12.8323  -7.5754   1.2207   5.4276   6.3008   7.1911

          k = 0.2000 0.5004 0.0000 (  3678 PWs)   bands (ev):

   -19.4977 -16.1547 -13.2558  -6.0603  -0.6698   7.4871   8.1745   9.3928

          k = 0.2000 0.5774 0.0000 (  3684 PWs)   bands (ev):

   -17.9057 -17.8987 -13.3916  -5.1669  -1.6983   9.0777   9.7516   9.9095

          k = 0.2667 0.4619 0.0000 (  3677 PWs)   bands (ev):

   -19.6175 -15.0100 -14.4298  -6.0931  -0.3920   7.3149   7.8653   9.1489

          k = 0.2667 0.5389 0.0000 (  3665 PWs)   bands (ev):

   -18.1404 -16.5130 -14.9261  -4.6487  -1.8983   8.2546   9.4811  10.9828

          k = 0.3333 0.5774 0.0000 (  3699 PWs)   bands (ev):

   -16.7453 -16.7453 -16.3313  -3.2301  -3.2301   7.9194  11.4841  11.4841

     the Fermi energy is    -3.1877 ev

!    total energy              =     -22.66217759 Ry
     estimated scf accuracy    <          4.9E-09 Ry
     smearing contrib. (-TS)   =      -0.00003668 Ry
     internal energy E=F+TS    =     -22.66214091 Ry

     The total energy is F=E-TS. E is the sum of the following terms:
     one-electron contribution =    -477.41380900 Ry
     hartree contribution      =     239.57354634 Ry
     xc contribution           =      -7.48682261 Ry
     ewald contribution        =     222.66494437 Ry

     convergence has been achieved in   6 iterations

     Forces acting on atoms (cartesian axes, Ry/au):

     atom    1 type  1   force =     0.00000000    0.00000000    0.00000000
     atom    2 type  1   force =     0.00000000    0.00000000    0.00000000

     Total force =     0.000000     Total SCF correction =     0.000000


     Computing stress (Cartesian axis) and pressure

          total   stress  (Ry/bohr**3)                   (kbar)     P=      181.52
   0.00192127  -0.00000000  -0.00000000          282.63       -0.00       -0.00
  -0.00000000   0.00192127   0.00000000           -0.00      282.63        0.00
  -0.00000000   0.00000000  -0.00014074           -0.00        0.00      -20.70


     Writing output data file ./work/LiC420.save/
 
     init_run     :      0.07s CPU      0.09s WALL (       1 calls)
     electrons    :      1.22s CPU      1.32s WALL (       1 calls)
     forces       :      0.01s CPU      0.01s WALL (       1 calls)
     stress       :      0.02s CPU      0.02s WALL (       1 calls)

     Called by init_run:
     wfcinit      :      0.05s CPU      0.06s WALL (       1 calls)
     potinit      :      0.01s CPU      0.01s WALL (       1 calls)
     hinit0       :      0.00s CPU      0.01s WALL (       1 calls)

     Called by electrons:
     c_bands      :      1.10s CPU      1.17s WALL (       6 calls)
     sum_band     :      0.10s CPU      0.12s WALL (       6 calls)
     v_of_rho     :      0.01s CPU      0.01s WALL (       7 calls)
     mix_rho      :      0.00s CPU      0.00s WALL (       6 calls)

     Called by c_bands:
     init_us_2    :      0.01s CPU      0.01s WALL (     405 calls)
     cegterg      :      1.09s CPU      1.15s WALL (     162 calls)

     Called by *egterg:
     cdiaghg      :      0.10s CPU      0.11s WALL (    1121 calls)
     h_psi        :      0.95s CPU      1.01s WALL (    1148 calls)
     g_psi        :      0.00s CPU      0.00s WALL (     959 calls)

     Called by h_psi:
     h_psi:calbec :      0.03s CPU      0.03s WALL (    1148 calls)
     vloc_psi     :      0.90s CPU      0.96s WALL (    1148 calls)
     add_vuspsi   :      0.01s CPU      0.01s WALL (    1148 calls)

     General routines
     calbec       :      0.03s CPU      0.04s WALL (    1283 calls)
     fft          :      0.01s CPU      0.02s WALL (      77 calls)
     ffts         :      0.00s CPU      0.00s WALL (       6 calls)
     fftw         :      0.95s CPU      1.02s WALL (   12976 calls)
 
     Parallel routines
     fft_scatt_xy :      0.05s CPU      0.05s WALL (   13059 calls)
     fft_scatt_yz :      0.39s CPU      0.42s WALL (   13059 calls)
 
     PWSCF        :      1.36s CPU      1.67s WALL

 
   This run was terminated on:  10:37:42  22Jan2024            

=------------------------------------------------------------------------------=
   JOB DONE.
=------------------------------------------------------------------------------=
