
     Program PWSCF v.6.7MaX starts on 22Jan2024 at 11: 1:26 

     This program is part of the open-source Quantum ESPRESSO suite
     for quantum simulation of materials; please cite
         "P. Giannozzi et al., J. Phys.:Condens. Matter 21 395502 (2009);
         "P. Giannozzi et al., J. Phys.:Condens. Matter 29 465901 (2017);
          URL http://www.quantum-espresso.org", 
     in publications or presentations arising from this work. More details at
     http://www.quantum-espresso.org/quote

     Parallel version (MPI), running on    32 processors

     MPI processes distributed on     1 nodes
     R & G space division:  proc/nbgrp/npool/nimage =      32
     Waiting for input...
     Reading input from standard input
Warning: card &CELL ignored
Warning: card  CELL_DYNAMICS = 'BFGS', ignored
Warning: card  PRESS = 0.0, ignored
Warning: card  PRESS_CONV_THR = 1D-3, ignored
Warning: card  CELL_DOFREE='2DXY' ignored
Warning: card / ignored

     Current dimensions of program PWSCF are:
     Max number of different atomic species (ntypx) = 10
     Max number of k-points (npk) =  40000
     Max angular momentum in pseudopotentials (lmaxx) =  3
     Message from routine read_pp_mesh:
     mesh size missing, using the one in header

     Subspace diagonalization in iterative solution of the eigenvalue problem:
     a serial algorithm will be used

 
     Parallelization info
     --------------------
     sticks:   dense  smooth     PW     G-vecs:    dense   smooth      PW
     Min           9       9      3                 1165     1165     183
     Max          10      10      4                 1210     1210     223
     Sum         313     313     97                38199    38199    6691
 


     bravais-lattice index     =            4
     lattice parameter (alat)  =       4.7700  a.u.
     unit-cell volume          =     798.0359 (a.u.)^3
     number of atoms/cell      =            2
     number of atomic types    =            1
     number of electrons       =         8.00
     number of Kohn-Sham states=            8
     kinetic-energy cutoff     =      50.0000  Ry
     charge density cutoff     =     200.0000  Ry
     scf convergence threshold =      1.0E-08
     mixing beta               =       0.7000
     number of iterations used =            8  plain     mixing
     Exchange-correlation= PBE
                           (   1   4   3   4   0   0   0)

     celldm(1)=   4.770000  celldm(2)=   0.000000  celldm(3)=   8.490566
     celldm(4)=   0.000000  celldm(5)=   0.000000  celldm(6)=   0.000000

     crystal axes: (cart. coord. in units of alat)
               a(1) = (   1.000000   0.000000   0.000000 )  
               a(2) = (  -0.500000   0.866025   0.000000 )  
               a(3) = (   0.000000   0.000000   8.490566 )  

     reciprocal axes: (cart. coord. in units 2 pi/alat)
               b(1) = (  1.000000  0.577350  0.000000 )  
               b(2) = (  0.000000  1.154701  0.000000 )  
               b(3) = (  0.000000  0.000000  0.117778 )  


     PseudoPot. # 1 for C  read from file:
     /home/yhkim/qe-6.7/pseudo/ONCV1/1.2/C_ONCV_PBE-1.2.upf
     MD5 check sum: 1a5f83a7b1f58d24996abe00ed223ac6
     Pseudo is Norm-conserving, Zval =  4.0
     Generated using ONCVPSP code by D. R. Hamann
     Using radial grid of  602 points,  4 beta functions with: 
                l(1) =   0
                l(2) =   0
                l(3) =   1
                l(4) =   1

     atomic species   valence    mass     pseudopotential
        C              4.00    12.01070     C ( 1.00)

     24 Sym. Ops., with inversion, found



   Cartesian axes

     site n.     atom                  positions (alat units)
         1           C   tau(   1) = (  -0.0000000   0.5773503   4.2452830  )
         2           C   tau(   2) = (   0.5000000   0.2886751   4.2452830  )

     number of k points=    27  Methfessel-Paxton smearing, width (Ry)=  0.0100
                       cart. coord. in units 2pi/alat
        k(    1) = (   0.0000000   0.0000000   0.0000000), wk =   0.0088889
        k(    2) = (   0.0000000   0.0769800   0.0000000), wk =   0.0533333
        k(    3) = (   0.0000000   0.1539601   0.0000000), wk =   0.0533333
        k(    4) = (   0.0000000   0.2309401   0.0000000), wk =   0.0533333
        k(    5) = (   0.0000000   0.3079201   0.0000000), wk =   0.0533333
        k(    6) = (   0.0000000   0.3849002   0.0000000), wk =   0.0533333
        k(    7) = (   0.0000000   0.4618802   0.0000000), wk =   0.0533333
        k(    8) = (   0.0000000   0.5388603   0.0000000), wk =   0.0533333
        k(    9) = (   0.0666667   0.1154701   0.0000000), wk =   0.0533333
        k(   10) = (   0.0666667   0.1924501   0.0000000), wk =   0.1066667
        k(   11) = (   0.0666667   0.2694301   0.0000000), wk =   0.1066667
        k(   12) = (   0.0666667   0.3464102   0.0000000), wk =   0.1066667
        k(   13) = (   0.0666667   0.4233902   0.0000000), wk =   0.1066667
        k(   14) = (   0.0666667   0.5003702   0.0000000), wk =   0.1066667
        k(   15) = (   0.0666667   0.5773503   0.0000000), wk =   0.0533333
        k(   16) = (   0.1333333   0.2309401   0.0000000), wk =   0.0533333
        k(   17) = (   0.1333333   0.3079201   0.0000000), wk =   0.1066667
        k(   18) = (   0.1333333   0.3849002   0.0000000), wk =   0.1066667
        k(   19) = (   0.1333333   0.4618802   0.0000000), wk =   0.1066667
        k(   20) = (   0.1333333   0.5388603   0.0000000), wk =   0.1066667
        k(   21) = (   0.2000000   0.3464102   0.0000000), wk =   0.0533333
        k(   22) = (   0.2000000   0.4233902   0.0000000), wk =   0.1066667
        k(   23) = (   0.2000000   0.5003702   0.0000000), wk =   0.1066667
        k(   24) = (   0.2000000   0.5773503   0.0000000), wk =   0.0533333
        k(   25) = (   0.2666667   0.4618802   0.0000000), wk =   0.0533333
        k(   26) = (   0.2666667   0.5388603   0.0000000), wk =   0.1066667
        k(   27) = (   0.3333333   0.5773503   0.0000000), wk =   0.0177778

     Dense  grid:    38199 G-vectors     FFT dimensions: (  24,  24, 192)

     Estimated max dynamical RAM per process >       1.69 MB

     Estimated total dynamical RAM >      53.99 MB
 ----2D----2D----2D----2D----2D----2D----2D----2D----2D----2D----2D----2D
  The code is running with the 2D cutoff
  Please refer to:
  Sohier, T., Calandra, M., & Mauri, F. (2017), 
  Density functional perturbation theory for gated two-dimensional heterostructu
 res:
  Theoretical developments and application to flexural phonons in graphene.
  Physical Review B, 96(7), 75448. https://doi.org/10.1103/PhysRevB.96.075448
 ----2D----2D----2D----2D----2D----2D----2D----2D----2D----2D----2D----2D

     Initial potential from superposition of free atoms

     starting charge    7.98607, renormalised to    8.00000

     negative rho (up, down):  1.197E-04 0.000E+00
     Starting wfcs are random

     total cpu time spent up to now is        0.1 secs

     Self-consistent Calculation

     iteration #  1     ecut=    50.00 Ry     beta= 0.70
     Davidson diagonalization with overlap
     ethr =  1.00E-02,  avg # of iterations = 11.3

     negative rho (up, down):  2.575E-07 0.000E+00

     total cpu time spent up to now is        0.5 secs

     total energy              =     -22.76336653 Ry
     estimated scf accuracy    <       0.13562248 Ry

     iteration #  2     ecut=    50.00 Ry     beta= 0.70
     Davidson diagonalization with overlap
     ethr =  1.70E-03,  avg # of iterations =  2.0

     total cpu time spent up to now is        0.7 secs

     total energy              =     -22.78483223 Ry
     estimated scf accuracy    <       0.00209360 Ry

     iteration #  3     ecut=    50.00 Ry     beta= 0.70
     Davidson diagonalization with overlap
     c_bands:  1 eigenvalues not converged
     ethr =  2.62E-05,  avg # of iterations = 10.2

     total cpu time spent up to now is        0.9 secs

     total energy              =     -22.78592349 Ry
     estimated scf accuracy    <       0.00012419 Ry

     iteration #  4     ecut=    50.00 Ry     beta= 0.70
     Davidson diagonalization with overlap
     c_bands:  1 eigenvalues not converged
     c_bands:  1 eigenvalues not converged
     ethr =  1.55E-06,  avg # of iterations =  7.0

     total cpu time spent up to now is        1.1 secs

     total energy              =     -22.78596018 Ry
     estimated scf accuracy    <       0.00000195 Ry

     iteration #  5     ecut=    50.00 Ry     beta= 0.70
     Davidson diagonalization with overlap
     ethr =  2.43E-08,  avg # of iterations =  4.0

     total cpu time spent up to now is        1.3 secs

     total energy              =     -22.78596308 Ry
     estimated scf accuracy    <       0.00000009 Ry

     iteration #  6     ecut=    50.00 Ry     beta= 0.70
     Davidson diagonalization with overlap
     ethr =  1.14E-09,  avg # of iterations =  2.1

     total cpu time spent up to now is        1.4 secs

     End of self-consistent calculation

          k = 0.0000 0.0000 0.0000 (  4831 PWs)   bands (ev):

   -23.4300 -11.6051  -7.5391  -7.5391  -0.9655  -0.2008   0.5925   0.9466

          k = 0.0000 0.0770 0.0000 (  4823 PWs)   bands (ev):

   -23.3294 -11.4870  -7.9547  -7.7463  -0.8294  -0.0631   0.7314   1.0847

          k = 0.0000 0.1540 0.0000 (  4811 PWs)   bands (ev):

   -23.0286 -11.1329  -9.0496  -8.2708  -0.4210   0.3497   1.1480   1.4986

          k = 0.0000 0.2309 0.0000 (  4797 PWs)   bands (ev):

   -22.5296 -10.5512 -10.5446  -8.9277   0.2590   1.0349   1.8420   2.1856

          k = 0.0000 0.3079 0.0000 (  4781 PWs)   bands (ev):

   -21.8369 -12.2107  -9.7566  -9.5695   1.2082   1.8215   2.1093   2.7928

          k = 0.0000 0.3849 0.0000 (  4765 PWs)   bands (ev):

   -20.9590 -13.9023 -10.1049  -8.7823   0.2036   2.3922   2.6460   3.2420

          k = 0.0000 0.4619 0.0000 (  4748 PWs)   bands (ev):

   -19.9154 -15.5233 -10.4840  -7.7092  -1.4172   2.3790   3.9185   4.7327

          k = 0.0000 0.5389 0.0000 (  4766 PWs)   bands (ev):

   -18.8061 -16.9320 -10.6788  -6.8208  -2.6001   2.2643   5.6428   6.4661

          k = 0.0667 0.1155 0.0000 (  4801 PWs)   bands (ev):

   -23.1287 -11.2501  -8.6612  -8.1584  -0.5570   0.2122   1.0091   1.3608

          k = 0.0667 0.1925 0.0000 (  4790 PWs)   bands (ev):

   -22.7288 -10.7822  -9.8723  -8.8348  -0.0126   0.7617   1.5648   1.9120

          k = 0.0667 0.2694 0.0000 (  4792 PWs)   bands (ev):

   -22.1329 -11.3957 -10.0932  -9.5456   0.8027   1.5778   2.3972   2.6115

          k = 0.0667 0.3464 0.0000 (  4769 PWs)   bands (ev):

   -21.3473 -13.0441 -10.1668  -9.2040   0.9782   1.8848   2.6923   3.1967

          k = 0.0667 0.4234 0.0000 (  4745 PWs)   bands (ev):

   -20.3843 -14.6869 -10.6408  -8.1640  -0.6809   2.9133   3.2651   4.0473

          k = 0.0667 0.5004 0.0000 (  4748 PWs)   bands (ev):

   -19.2824 -16.2196 -10.9353  -7.1211  -2.1324   2.7618   4.8490   5.6528

          k = 0.0667 0.5774 0.0000 (  4754 PWs)   bands (ev):

   -18.4376 -17.2118 -11.0354  -6.5767  -2.8185   2.7034   6.6007   6.7644

          k = 0.1333 0.2309 0.0000 (  4801 PWs)   bands (ev):

   -22.2319 -10.9487 -10.2061  -9.7324   0.6675   1.4465   2.2594   2.6010

          k = 0.1333 0.3079 0.0000 (  4767 PWs)   bands (ev):

   -21.5428 -12.2917 -10.5864  -9.4178   1.4722   1.6171   2.4037   3.2308

          k = 0.1333 0.3849 0.0000 (  4754 PWs)   bands (ev):

   -20.6705 -13.8106 -11.2305  -8.4497  -0.0793   2.8309   3.6199   4.2665

          k = 0.1333 0.4619 0.0000 (  4752 PWs)   bands (ev):

   -19.6361 -15.3432 -11.6568  -7.3771  -1.5903   4.0313   4.3347   5.0765

          k = 0.1333 0.5389 0.0000 (  4752 PWs)   bands (ev):

   -18.5387 -16.7062 -11.8699  -6.4668  -2.7383   3.9342   6.0199   6.6581

          k = 0.2000 0.3464 0.0000 (  4759 PWs)   bands (ev):

   -20.7668 -13.2929 -11.6783  -8.5470   0.1633   2.6979   3.4720   4.3406

          k = 0.2000 0.4234 0.0000 (  4757 PWs)   bands (ev):

   -19.8191 -14.5206 -12.4612  -7.5207  -1.2140   4.0363   4.7684   5.7085

          k = 0.2000 0.5004 0.0000 (  4757 PWs)   bands (ev):

   -18.7398 -15.8588 -12.8807  -6.4578  -2.5069   5.5456   5.7284   6.1111

          k = 0.2000 0.5774 0.0000 (  4742 PWs)   bands (ev):

   -17.9100 -16.7884 -13.0117  -5.8545  -3.1900   5.5832   6.7127   7.2390

          k = 0.2667 0.4619 0.0000 (  4745 PWs)   bands (ev):

   -18.8178 -15.3073 -13.4922  -6.4671  -2.3864   5.4777   5.8955   7.1943

          k = 0.2667 0.5389 0.0000 (  4745 PWs)   bands (ev):

   -17.7576 -16.2867 -14.0057  -5.4573  -3.4494   6.2494   7.0240   7.3505

          k = 0.3333 0.5774 0.0000 (  4758 PWs)   bands (ev):

   -16.8616 -16.8616 -14.5278  -4.4380  -4.4380   6.0825   7.9227   7.9228

     the Fermi energy is    -4.4380 ev

!    total energy              =     -22.78596310 Ry
     estimated scf accuracy    <          2.0E-09 Ry
     smearing contrib. (-TS)   =      -0.00005015 Ry
     internal energy E=F+TS    =     -22.78591295 Ry

     The total energy is F=E-TS. E is the sum of the following terms:
     one-electron contribution =    -368.92722488 Ry
     hartree contribution      =     185.03770780 Ry
     xc contribution           =      -6.91131712 Ry
     ewald contribution        =     168.01492125 Ry

     convergence has been achieved in   6 iterations

     Forces acting on atoms (cartesian axes, Ry/au):

     atom    1 type  1   force =    -0.00000000   -0.00000000    0.00000000
     atom    2 type  1   force =     0.00000000    0.00000000    0.00000000

     Total force =     0.000000     Total SCF correction =     0.000000


     Computing stress (Cartesian axis) and pressure

          total   stress  (Ry/bohr**3)                   (kbar)     P=      -41.37
  -0.00037155   0.00000000   0.00000000          -54.66        0.00        0.00
   0.00000000  -0.00037155  -0.00000000            0.00      -54.66       -0.00
   0.00000000   0.00000000  -0.00010054            0.00        0.00      -14.79


     Writing output data file ./work/LiC477.save/
 
     init_run     :      0.07s CPU      0.09s WALL (       1 calls)
     electrons    :      1.24s CPU      1.34s WALL (       1 calls)
     forces       :      0.01s CPU      0.01s WALL (       1 calls)
     stress       :      0.02s CPU      0.02s WALL (       1 calls)

     Called by init_run:
     wfcinit      :      0.06s CPU      0.07s WALL (       1 calls)
     potinit      :      0.00s CPU      0.01s WALL (       1 calls)
     hinit0       :      0.00s CPU      0.00s WALL (       1 calls)

     Called by electrons:
     c_bands      :      1.11s CPU      1.19s WALL (       6 calls)
     sum_band     :      0.11s CPU      0.12s WALL (       6 calls)
     v_of_rho     :      0.01s CPU      0.01s WALL (       7 calls)
     mix_rho      :      0.00s CPU      0.00s WALL (       6 calls)

     Called by c_bands:
     init_us_2    :      0.01s CPU      0.01s WALL (     405 calls)
     cegterg      :      1.09s CPU      1.17s WALL (     162 calls)

     Called by *egterg:
     cdiaghg      :      0.11s CPU      0.11s WALL (    1153 calls)
     h_psi        :      0.94s CPU      1.01s WALL (    1180 calls)
     g_psi        :      0.00s CPU      0.00s WALL (     991 calls)

     Called by h_psi:
     h_psi:calbec :      0.03s CPU      0.04s WALL (    1180 calls)
     vloc_psi     :      0.89s CPU      0.96s WALL (    1180 calls)
     add_vuspsi   :      0.01s CPU      0.01s WALL (    1180 calls)

     General routines
     calbec       :      0.04s CPU      0.04s WALL (    1315 calls)
     fft          :      0.01s CPU      0.01s WALL (      77 calls)
     ffts         :      0.00s CPU      0.00s WALL (       6 calls)
     fftw         :      0.94s CPU      1.01s WALL (   13194 calls)
 
     Parallel routines
     fft_scatt_xy :      0.06s CPU      0.07s WALL (   13277 calls)
     fft_scatt_yz :      0.55s CPU      0.59s WALL (   13277 calls)
 
     PWSCF        :      1.38s CPU      1.73s WALL

 
   This run was terminated on:  11: 1:27  22Jan2024            

=------------------------------------------------------------------------------=
   JOB DONE.
=------------------------------------------------------------------------------=
