
     Program PWSCF v.6.7MaX starts on 22Jan2024 at 11: 0:57 

     This program is part of the open-source Quantum ESPRESSO suite
     for quantum simulation of materials; please cite
         "P. Giannozzi et al., J. Phys.:Condens. Matter 21 395502 (2009);
         "P. Giannozzi et al., J. Phys.:Condens. Matter 29 465901 (2017);
          URL http://www.quantum-espresso.org", 
     in publications or presentations arising from this work. More details at
     http://www.quantum-espresso.org/quote

     Parallel version (MPI), running on    32 processors

     MPI processes distributed on     1 nodes
     R & G space division:  proc/nbgrp/npool/nimage =      32
     Waiting for input...
     Reading input from standard input
Warning: card &CELL ignored
Warning: card  CELL_DYNAMICS = 'BFGS', ignored
Warning: card  PRESS = 0.0, ignored
Warning: card  PRESS_CONV_THR = 1D-3, ignored
Warning: card  CELL_DOFREE='2DXY' ignored
Warning: card / ignored

     Current dimensions of program PWSCF are:
     Max number of different atomic species (ntypx) = 10
     Max number of k-points (npk) =  40000
     Max angular momentum in pseudopotentials (lmaxx) =  3
     Message from routine read_pp_mesh:
     mesh size missing, using the one in header

     Subspace diagonalization in iterative solution of the eigenvalue problem:
     a serial algorithm will be used

 
     Parallelization info
     --------------------
     sticks:   dense  smooth     PW     G-vecs:    dense   smooth      PW
     Min           9       9      2                 1117     1117     170
     Max          10      10      3                 1150     1150     215
     Sum         301     301     91                36123    36123    6409
 


     bravais-lattice index     =            4
     lattice parameter (alat)  =       4.6400  a.u.
     unit-cell volume          =     755.1298 (a.u.)^3
     number of atoms/cell      =            2
     number of atomic types    =            1
     number of electrons       =         8.00
     number of Kohn-Sham states=            8
     kinetic-energy cutoff     =      50.0000  Ry
     charge density cutoff     =     200.0000  Ry
     scf convergence threshold =      1.0E-08
     mixing beta               =       0.7000
     number of iterations used =            8  plain     mixing
     Exchange-correlation= PBE
                           (   1   4   3   4   0   0   0)

     celldm(1)=   4.640000  celldm(2)=   0.000000  celldm(3)=   8.728448
     celldm(4)=   0.000000  celldm(5)=   0.000000  celldm(6)=   0.000000

     crystal axes: (cart. coord. in units of alat)
               a(1) = (   1.000000   0.000000   0.000000 )  
               a(2) = (  -0.500000   0.866025   0.000000 )  
               a(3) = (   0.000000   0.000000   8.728448 )  

     reciprocal axes: (cart. coord. in units 2 pi/alat)
               b(1) = (  1.000000  0.577350  0.000000 )  
               b(2) = (  0.000000  1.154701  0.000000 )  
               b(3) = (  0.000000  0.000000  0.114568 )  


     PseudoPot. # 1 for C  read from file:
     /home/yhkim/qe-6.7/pseudo/ONCV1/1.2/C_ONCV_PBE-1.2.upf
     MD5 check sum: 1a5f83a7b1f58d24996abe00ed223ac6
     Pseudo is Norm-conserving, Zval =  4.0
     Generated using ONCVPSP code by D. R. Hamann
     Using radial grid of  602 points,  4 beta functions with: 
                l(1) =   0
                l(2) =   0
                l(3) =   1
                l(4) =   1

     atomic species   valence    mass     pseudopotential
        C              4.00    12.01070     C ( 1.00)

     24 Sym. Ops., with inversion, found



   Cartesian axes

     site n.     atom                  positions (alat units)
         1           C   tau(   1) = (  -0.0000000   0.5773503   4.3642241  )
         2           C   tau(   2) = (   0.5000000   0.2886751   4.3642241  )

     number of k points=    27  Methfessel-Paxton smearing, width (Ry)=  0.0100
                       cart. coord. in units 2pi/alat
        k(    1) = (   0.0000000   0.0000000   0.0000000), wk =   0.0088889
        k(    2) = (   0.0000000   0.0769800   0.0000000), wk =   0.0533333
        k(    3) = (   0.0000000   0.1539601   0.0000000), wk =   0.0533333
        k(    4) = (   0.0000000   0.2309401   0.0000000), wk =   0.0533333
        k(    5) = (   0.0000000   0.3079201   0.0000000), wk =   0.0533333
        k(    6) = (   0.0000000   0.3849002   0.0000000), wk =   0.0533333
        k(    7) = (   0.0000000   0.4618802   0.0000000), wk =   0.0533333
        k(    8) = (   0.0000000   0.5388603   0.0000000), wk =   0.0533333
        k(    9) = (   0.0666667   0.1154701   0.0000000), wk =   0.0533333
        k(   10) = (   0.0666667   0.1924501   0.0000000), wk =   0.1066667
        k(   11) = (   0.0666667   0.2694301   0.0000000), wk =   0.1066667
        k(   12) = (   0.0666667   0.3464102   0.0000000), wk =   0.1066667
        k(   13) = (   0.0666667   0.4233902   0.0000000), wk =   0.1066667
        k(   14) = (   0.0666667   0.5003702   0.0000000), wk =   0.1066667
        k(   15) = (   0.0666667   0.5773503   0.0000000), wk =   0.0533333
        k(   16) = (   0.1333333   0.2309401   0.0000000), wk =   0.0533333
        k(   17) = (   0.1333333   0.3079201   0.0000000), wk =   0.1066667
        k(   18) = (   0.1333333   0.3849002   0.0000000), wk =   0.1066667
        k(   19) = (   0.1333333   0.4618802   0.0000000), wk =   0.1066667
        k(   20) = (   0.1333333   0.5388603   0.0000000), wk =   0.1066667
        k(   21) = (   0.2000000   0.3464102   0.0000000), wk =   0.0533333
        k(   22) = (   0.2000000   0.4233902   0.0000000), wk =   0.1066667
        k(   23) = (   0.2000000   0.5003702   0.0000000), wk =   0.1066667
        k(   24) = (   0.2000000   0.5773503   0.0000000), wk =   0.0533333
        k(   25) = (   0.2666667   0.4618802   0.0000000), wk =   0.0533333
        k(   26) = (   0.2666667   0.5388603   0.0000000), wk =   0.1066667
        k(   27) = (   0.3333333   0.5773503   0.0000000), wk =   0.0177778

     Dense  grid:    36123 G-vectors     FFT dimensions: (  24,  24, 192)

     Estimated max dynamical RAM per process >       1.62 MB

     Estimated total dynamical RAM >      51.93 MB
 ----2D----2D----2D----2D----2D----2D----2D----2D----2D----2D----2D----2D
  The code is running with the 2D cutoff
  Please refer to:
  Sohier, T., Calandra, M., & Mauri, F. (2017), 
  Density functional perturbation theory for gated two-dimensional heterostructu
 res:
  Theoretical developments and application to flexural phonons in graphene.
  Physical Review B, 96(7), 75448. https://doi.org/10.1103/PhysRevB.96.075448
 ----2D----2D----2D----2D----2D----2D----2D----2D----2D----2D----2D----2D

     Initial potential from superposition of free atoms

     starting charge    7.98607, renormalised to    8.00000

     negative rho (up, down):  1.164E-04 0.000E+00
     Starting wfcs are random

     total cpu time spent up to now is        0.1 secs

     Self-consistent Calculation

     iteration #  1     ecut=    50.00 Ry     beta= 0.70
     Davidson diagonalization with overlap
     ethr =  1.00E-02,  avg # of iterations = 12.0

     negative rho (up, down):  6.310E-08 0.000E+00

     total cpu time spent up to now is        0.5 secs

     total energy              =     -22.76100079 Ry
     estimated scf accuracy    <       0.17331997 Ry

     iteration #  2     ecut=    50.00 Ry     beta= 0.70
     Davidson diagonalization with overlap
     ethr =  2.17E-03,  avg # of iterations =  2.3

     total cpu time spent up to now is        0.6 secs

     total energy              =     -22.78762569 Ry
     estimated scf accuracy    <       0.00210991 Ry

     iteration #  3     ecut=    50.00 Ry     beta= 0.70
     Davidson diagonalization with overlap
     ethr =  2.64E-05,  avg # of iterations = 10.2

     total cpu time spent up to now is        0.8 secs

     total energy              =     -22.79076345 Ry
     estimated scf accuracy    <       0.00014780 Ry

     iteration #  4     ecut=    50.00 Ry     beta= 0.70
     Davidson diagonalization with overlap
     c_bands:  1 eigenvalues not converged
     ethr =  1.85E-06,  avg # of iterations =  6.0

     total cpu time spent up to now is        1.0 secs

     total energy              =     -22.79079824 Ry
     estimated scf accuracy    <       0.00000022 Ry

     iteration #  5     ecut=    50.00 Ry     beta= 0.70
     Davidson diagonalization with overlap
     ethr =  2.75E-09,  avg # of iterations =  4.7

     total cpu time spent up to now is        1.2 secs

     total energy              =     -22.79080111 Ry
     estimated scf accuracy    <       0.00000002 Ry

     iteration #  6     ecut=    50.00 Ry     beta= 0.70
     Davidson diagonalization with overlap
     ethr =  3.12E-10,  avg # of iterations =  2.0

     total cpu time spent up to now is        1.3 secs

     End of self-consistent calculation

          k = 0.0000 0.0000 0.0000 (  4483 PWs)   bands (ev):

   -23.8551 -11.9218  -7.2872  -7.2872  -0.9824  -0.2033   0.5848   0.9398

          k = 0.0000 0.0770 0.0000 (  4475 PWs)   bands (ev):

   -23.7493 -11.7940  -7.7107  -7.5100  -0.8386  -0.0574   0.7315   1.0860

          k = 0.0000 0.1540 0.0000 (  4505 PWs)   bands (ev):

   -23.4332 -11.4155  -8.8424  -8.0795  -0.4074   0.3795   1.1718   1.5241

          k = 0.0000 0.2309 0.0000 (  4495 PWs)   bands (ev):

   -22.9087 -10.7926 -10.3932  -8.7918   0.3108   1.1053   1.9055   2.2519

          k = 0.0000 0.3079 0.0000 (  4515 PWs)   bands (ev):

   -22.1802 -12.1372  -9.9400  -9.4860   1.3137   2.0841   2.6916   2.9307

          k = 0.0000 0.3849 0.0000 (  4541 PWs)   bands (ev):

   -21.2550 -13.9147 -10.0660  -8.8907   0.7618   2.5926   3.4478   3.6195

          k = 0.0000 0.4619 0.0000 (  4545 PWs)   bands (ev):

   -20.1487 -15.6250 -10.4725  -7.7332  -1.0100   3.3905   4.1932   5.0273

          k = 0.0000 0.5389 0.0000 (  4539 PWs)   bands (ev):

   -18.9345 -17.1505 -10.6819  -6.7634  -2.3072   3.2973   6.0081   6.8725

          k = 0.0667 0.1155 0.0000 (  4503 PWs)   bands (ev):

   -23.5384 -11.5410  -8.4368  -7.9617  -0.5511   0.2340   1.0251   1.3782

          k = 0.0667 0.1925 0.0000 (  4506 PWs)   bands (ev):

   -23.1182 -11.0401  -9.6878  -8.6939   0.0239   0.8158   1.6123   1.9616

          k = 0.0667 0.2694 0.0000 (  4499 PWs)   bands (ev):

   -22.4917 -11.2776 -10.3008  -9.4559   0.8852   1.6825   2.4925   2.8274

          k = 0.0667 0.3464 0.0000 (  4512 PWs)   bands (ev):

   -21.6647 -13.0074 -10.1224  -9.3458   1.6146   2.0294   2.8696   3.6610

          k = 0.0667 0.4234 0.0000 (  4518 PWs)   bands (ev):

   -20.6476 -14.7367 -10.6302  -8.2260  -0.1966   3.4366   3.9945   4.3002

          k = 0.0667 0.5004 0.0000 (  4531 PWs)   bands (ev):

   -19.4695 -16.3657 -10.9457  -7.0959  -1.7847   3.8045   5.1704   6.0070

          k = 0.0667 0.5774 0.0000 (  4536 PWs)   bands (ev):

   -18.4942 -17.4950 -11.0525  -6.4988  -2.5402   3.7548   7.0332   7.1894

          k = 0.1333 0.2309 0.0000 (  4497 PWs)   bands (ev):

   -22.5958 -10.7917 -10.4220  -9.6648   0.7425   1.5410   2.3464   2.6896

          k = 0.1333 0.3079 0.0000 (  4499 PWs)   bands (ev):

   -21.8710 -12.1932 -10.5770  -9.5766   1.7461   2.1723   2.5623   3.3736

          k = 0.1333 0.3849 0.0000 (  4515 PWs)   bands (ev):

   -20.9515 -13.7944 -11.2554  -8.5352   0.4781   3.0298   3.8470   4.6902

          k = 0.1333 0.4619 0.0000 (  4523 PWs)   bands (ev):

   -19.8545 -15.4174 -11.7030  -7.3780  -1.1732   4.5750   5.1634   5.3963

          k = 0.1333 0.5389 0.0000 (  4513 PWs)   bands (ev):

   -18.6561 -16.8966 -11.9260  -6.3860  -2.4283   5.0309   6.4115   7.0994

          k = 0.2000 0.3464 0.0000 (  4499 PWs)   bands (ev):

   -21.0534 -13.2085 -11.7597  -8.6402   0.7576   2.8890   3.6891   4.5471

          k = 0.2000 0.4234 0.0000 (  4501 PWs)   bands (ev):

   -20.0517 -14.5002 -12.5841  -7.5341  -0.7383   4.3056   5.0691   6.0099

          k = 0.2000 0.5004 0.0000 (  4507 PWs)   bands (ev):

   -18.8986 -15.9385 -13.0123  -6.3841  -2.1464   5.9715   6.5131   6.8274

          k = 0.2000 0.5774 0.0000 (  4506 PWs)   bands (ev):

   -17.9534 -16.9947 -13.1452  -5.7262  -2.8946   6.7472   7.1644   7.7434

          k = 0.2667 0.4619 0.0000 (  4487 PWs)   bands (ev):

   -18.9880 -15.2803 -13.7213  -6.3961  -1.9992   5.8364   6.2781   7.5706

          k = 0.2667 0.5389 0.0000 (  4494 PWs)   bands (ev):

   -17.8395 -16.3370 -14.2661  -5.3034  -3.1493   6.6351   7.5448   8.4953

          k = 0.3333 0.5774 0.0000 (  4485 PWs)   bands (ev):

   -16.8767 -16.8767 -14.8973  -4.2056  -4.2056   6.4368   8.7639   8.7639

     the Fermi energy is    -4.2056 ev

!    total energy              =     -22.79080111 Ry
     estimated scf accuracy    <          3.0E-10 Ry
     smearing contrib. (-TS)   =      -0.00005015 Ry
     internal energy E=F+TS    =     -22.79075096 Ry

     The total energy is F=E-TS. E is the sum of the following terms:
     one-electron contribution =    -390.12630982 Ry
     hartree contribution      =     195.69021913 Ry
     xc contribution           =      -7.02821544 Ry
     ewald contribution        =     178.67355517 Ry

     convergence has been achieved in   6 iterations

     Forces acting on atoms (cartesian axes, Ry/au):

     atom    1 type  1   force =     0.00000000    0.00000000    0.00000000
     atom    2 type  1   force =    -0.00000000   -0.00000000    0.00000000

     Total force =     0.000000     Total SCF correction =     0.000000


     Computing stress (Cartesian axis) and pressure

          total   stress  (Ry/bohr**3)                   (kbar)     P=      -10.28
  -0.00005041   0.00000000  -0.00000000           -7.42        0.00       -0.00
   0.00000000  -0.00005041  -0.00000000            0.00       -7.42       -0.00
   0.00000000   0.00000000  -0.00010882            0.00        0.00      -16.01


     Writing output data file ./work/LiC464.save/
 
     init_run     :      0.07s CPU      0.08s WALL (       1 calls)
     electrons    :      1.06s CPU      1.19s WALL (       1 calls)
     forces       :      0.01s CPU      0.01s WALL (       1 calls)
     stress       :      0.02s CPU      0.02s WALL (       1 calls)

     Called by init_run:
     wfcinit      :      0.05s CPU      0.06s WALL (       1 calls)
     potinit      :      0.01s CPU      0.01s WALL (       1 calls)
     hinit0       :      0.00s CPU      0.00s WALL (       1 calls)

     Called by electrons:
     c_bands      :      0.95s CPU      1.06s WALL (       6 calls)
     sum_band     :      0.09s CPU      0.10s WALL (       6 calls)
     v_of_rho     :      0.01s CPU      0.02s WALL (       7 calls)
     mix_rho      :      0.00s CPU      0.00s WALL (       6 calls)

     Called by c_bands:
     init_us_2    :      0.01s CPU      0.01s WALL (     405 calls)
     cegterg      :      0.93s CPU      1.04s WALL (     162 calls)

     Called by *egterg:
     cdiaghg      :      0.10s CPU      0.11s WALL (    1162 calls)
     h_psi        :      0.79s CPU      0.88s WALL (    1189 calls)
     g_psi        :      0.00s CPU      0.00s WALL (    1000 calls)

     Called by h_psi:
     h_psi:calbec :      0.03s CPU      0.03s WALL (    1189 calls)
     vloc_psi     :      0.74s CPU      0.82s WALL (    1189 calls)
     add_vuspsi   :      0.01s CPU      0.01s WALL (    1189 calls)

     General routines
     calbec       :      0.04s CPU      0.04s WALL (    1324 calls)
     fft          :      0.01s CPU      0.01s WALL (      77 calls)
     ffts         :      0.00s CPU      0.00s WALL (       6 calls)
     fftw         :      0.77s CPU      0.86s WALL (   13250 calls)
 
     Parallel routines
     fft_scatt_xy :      0.06s CPU      0.06s WALL (   13333 calls)
     fft_scatt_yz :      0.40s CPU      0.45s WALL (   13333 calls)
 
     PWSCF        :      1.19s CPU      1.57s WALL

 
   This run was terminated on:  11: 0:59  22Jan2024            

=------------------------------------------------------------------------------=
   JOB DONE.
=------------------------------------------------------------------------------=
