
     Program PWSCF v.6.7MaX starts on 22Jan2024 at 11: 1:43 

     This program is part of the open-source Quantum ESPRESSO suite
     for quantum simulation of materials; please cite
         "P. Giannozzi et al., J. Phys.:Condens. Matter 21 395502 (2009);
         "P. Giannozzi et al., J. Phys.:Condens. Matter 29 465901 (2017);
          URL http://www.quantum-espresso.org", 
     in publications or presentations arising from this work. More details at
     http://www.quantum-espresso.org/quote

     Parallel version (MPI), running on    32 processors

     MPI processes distributed on     1 nodes
     R & G space division:  proc/nbgrp/npool/nimage =      32
     Waiting for input...
     Reading input from standard input
Warning: card &CELL ignored
Warning: card  CELL_DYNAMICS = 'BFGS', ignored
Warning: card  PRESS = 0.0, ignored
Warning: card  PRESS_CONV_THR = 1D-3, ignored
Warning: card  CELL_DOFREE='2DXY' ignored
Warning: card / ignored

     Current dimensions of program PWSCF are:
     Max number of different atomic species (ntypx) = 10
     Max number of k-points (npk) =  40000
     Max angular momentum in pseudopotentials (lmaxx) =  3
     Message from routine read_pp_mesh:
     mesh size missing, using the one in header

     Subspace diagonalization in iterative solution of the eigenvalue problem:
     a serial algorithm will be used

 
     Parallelization info
     --------------------
     sticks:   dense  smooth     PW     G-vecs:    dense   smooth      PW
     Min           9       9      3                 1187     1187     207
     Max          10      10      5                 1246     1246     225
     Sum         313     313    109                39219    39219    6943
 


     bravais-lattice index     =            4
     lattice parameter (alat)  =       4.8500  a.u.
     unit-cell volume          =     825.0288 (a.u.)^3
     number of atoms/cell      =            2
     number of atomic types    =            1
     number of electrons       =         8.00
     number of Kohn-Sham states=            8
     kinetic-energy cutoff     =      50.0000  Ry
     charge density cutoff     =     200.0000  Ry
     scf convergence threshold =      1.0E-08
     mixing beta               =       0.7000
     number of iterations used =            8  plain     mixing
     Exchange-correlation= PBE
                           (   1   4   3   4   0   0   0)

     celldm(1)=   4.850000  celldm(2)=   0.000000  celldm(3)=   8.350515
     celldm(4)=   0.000000  celldm(5)=   0.000000  celldm(6)=   0.000000

     crystal axes: (cart. coord. in units of alat)
               a(1) = (   1.000000   0.000000   0.000000 )  
               a(2) = (  -0.500000   0.866025   0.000000 )  
               a(3) = (   0.000000   0.000000   8.350515 )  

     reciprocal axes: (cart. coord. in units 2 pi/alat)
               b(1) = (  1.000000  0.577350  0.000000 )  
               b(2) = (  0.000000  1.154701  0.000000 )  
               b(3) = (  0.000000  0.000000  0.119753 )  


     PseudoPot. # 1 for C  read from file:
     /home/yhkim/qe-6.7/pseudo/ONCV1/1.2/C_ONCV_PBE-1.2.upf
     MD5 check sum: 1a5f83a7b1f58d24996abe00ed223ac6
     Pseudo is Norm-conserving, Zval =  4.0
     Generated using ONCVPSP code by D. R. Hamann
     Using radial grid of  602 points,  4 beta functions with: 
                l(1) =   0
                l(2) =   0
                l(3) =   1
                l(4) =   1

     atomic species   valence    mass     pseudopotential
        C              4.00    12.01070     C ( 1.00)

     24 Sym. Ops., with inversion, found



   Cartesian axes

     site n.     atom                  positions (alat units)
         1           C   tau(   1) = (  -0.0000000   0.5773503   4.1752577  )
         2           C   tau(   2) = (   0.5000000   0.2886751   4.1752577  )

     number of k points=    27  Methfessel-Paxton smearing, width (Ry)=  0.0100
                       cart. coord. in units 2pi/alat
        k(    1) = (   0.0000000   0.0000000   0.0000000), wk =   0.0088889
        k(    2) = (   0.0000000   0.0769800   0.0000000), wk =   0.0533333
        k(    3) = (   0.0000000   0.1539601   0.0000000), wk =   0.0533333
        k(    4) = (   0.0000000   0.2309401   0.0000000), wk =   0.0533333
        k(    5) = (   0.0000000   0.3079201   0.0000000), wk =   0.0533333
        k(    6) = (   0.0000000   0.3849002   0.0000000), wk =   0.0533333
        k(    7) = (   0.0000000   0.4618802   0.0000000), wk =   0.0533333
        k(    8) = (   0.0000000   0.5388603   0.0000000), wk =   0.0533333
        k(    9) = (   0.0666667   0.1154701   0.0000000), wk =   0.0533333
        k(   10) = (   0.0666667   0.1924501   0.0000000), wk =   0.1066667
        k(   11) = (   0.0666667   0.2694301   0.0000000), wk =   0.1066667
        k(   12) = (   0.0666667   0.3464102   0.0000000), wk =   0.1066667
        k(   13) = (   0.0666667   0.4233902   0.0000000), wk =   0.1066667
        k(   14) = (   0.0666667   0.5003702   0.0000000), wk =   0.1066667
        k(   15) = (   0.0666667   0.5773503   0.0000000), wk =   0.0533333
        k(   16) = (   0.1333333   0.2309401   0.0000000), wk =   0.0533333
        k(   17) = (   0.1333333   0.3079201   0.0000000), wk =   0.1066667
        k(   18) = (   0.1333333   0.3849002   0.0000000), wk =   0.1066667
        k(   19) = (   0.1333333   0.4618802   0.0000000), wk =   0.1066667
        k(   20) = (   0.1333333   0.5388603   0.0000000), wk =   0.1066667
        k(   21) = (   0.2000000   0.3464102   0.0000000), wk =   0.0533333
        k(   22) = (   0.2000000   0.4233902   0.0000000), wk =   0.1066667
        k(   23) = (   0.2000000   0.5003702   0.0000000), wk =   0.1066667
        k(   24) = (   0.2000000   0.5773503   0.0000000), wk =   0.0533333
        k(   25) = (   0.2666667   0.4618802   0.0000000), wk =   0.0533333
        k(   26) = (   0.2666667   0.5388603   0.0000000), wk =   0.1066667
        k(   27) = (   0.3333333   0.5773503   0.0000000), wk =   0.0177778

     Dense  grid:    39219 G-vectors     FFT dimensions: (  24,  24, 192)

     Estimated max dynamical RAM per process >       1.72 MB

     Estimated total dynamical RAM >      55.13 MB
 ----2D----2D----2D----2D----2D----2D----2D----2D----2D----2D----2D----2D
  The code is running with the 2D cutoff
  Please refer to:
  Sohier, T., Calandra, M., & Mauri, F. (2017), 
  Density functional perturbation theory for gated two-dimensional heterostructu
 res:
  Theoretical developments and application to flexural phonons in graphene.
  Physical Review B, 96(7), 75448. https://doi.org/10.1103/PhysRevB.96.075448
 ----2D----2D----2D----2D----2D----2D----2D----2D----2D----2D----2D----2D

     Initial potential from superposition of free atoms

     starting charge    7.98607, renormalised to    8.00000

     negative rho (up, down):  1.195E-04 0.000E+00
     Starting wfcs are random

     total cpu time spent up to now is        0.1 secs

     Self-consistent Calculation

     iteration #  1     ecut=    50.00 Ry     beta= 0.70
     Davidson diagonalization with overlap
     ethr =  1.00E-02,  avg # of iterations = 12.2

     negative rho (up, down):  1.248E-07 0.000E+00

     total cpu time spent up to now is        0.6 secs

     total energy              =     -22.75301846 Ry
     estimated scf accuracy    <       0.11547399 Ry

     iteration #  2     ecut=    50.00 Ry     beta= 0.70
     Davidson diagonalization with overlap
     ethr =  1.44E-03,  avg # of iterations =  2.3

     total cpu time spent up to now is        0.7 secs

     total energy              =     -22.77288710 Ry
     estimated scf accuracy    <       0.00198191 Ry

     iteration #  3     ecut=    50.00 Ry     beta= 0.70
     Davidson diagonalization with overlap
     c_bands:  1 eigenvalues not converged
     ethr =  2.48E-05,  avg # of iterations = 10.3

     total cpu time spent up to now is        1.0 secs

     total energy              =     -22.77607021 Ry
     estimated scf accuracy    <       0.00013149 Ry

     iteration #  4     ecut=    50.00 Ry     beta= 0.70
     Davidson diagonalization with overlap
     ethr =  1.64E-06,  avg # of iterations =  6.0

     total cpu time spent up to now is        1.2 secs

     total energy              =     -22.77610820 Ry
     estimated scf accuracy    <       0.00000018 Ry

     iteration #  5     ecut=    50.00 Ry     beta= 0.70
     Davidson diagonalization with overlap
     ethr =  2.26E-09,  avg # of iterations =  4.6

     total cpu time spent up to now is        1.4 secs

     total energy              =     -22.77611084 Ry
     estimated scf accuracy    <       0.00000003 Ry

     iteration #  6     ecut=    50.00 Ry     beta= 0.70
     Davidson diagonalization with overlap
     ethr =  3.21E-10,  avg # of iterations =  2.0

     total cpu time spent up to now is        1.5 secs

     End of self-consistent calculation

          k = 0.0000 0.0000 0.0000 (  5035 PWs)   bands (ev):

   -23.1743 -11.4218  -7.6722  -7.6722  -0.9549  -0.1994   0.5973   0.9505

          k = 0.0000 0.0770 0.0000 (  5011 PWs)   bands (ev):

   -23.0767 -11.3072  -8.0809  -7.8669  -0.8231  -0.0662   0.7317   1.0841

          k = 0.0000 0.1540 0.0000 (  4981 PWs)   bands (ev):

   -22.7849 -10.9672  -9.1575  -8.3654  -0.4278   0.3326   1.1346   1.4841

          k = 0.0000 0.2309 0.0000 (  4953 PWs)   bands (ev):

   -22.3009 -10.6201 -10.4098  -8.9920   0.2303   0.9942   1.8058   2.1466

          k = 0.0000 0.3079 0.0000 (  4947 PWs)   bands (ev):

   -21.6296 -12.2446  -9.6493  -9.6068   1.1484   1.4759   1.9635   2.3391

          k = 0.0000 0.3849 0.0000 (  4934 PWs)   bands (ev):

   -20.7800 -13.8897 -10.1188  -8.7157  -0.1175   2.0081   2.3481   3.1241

          k = 0.0000 0.4619 0.0000 (  4882 PWs)   bands (ev):

   -19.7742 -15.4567 -10.4787  -7.6931  -1.6534   1.7923   3.7664   4.5628

          k = 0.0000 0.5389 0.0000 (  4864 PWs)   bands (ev):

   -18.7252 -16.7948 -10.6657  -6.8496  -2.7700   1.6723   5.4339   6.2311

          k = 0.0667 0.1155 0.0000 (  5003 PWs)   bands (ev):

   -22.8820 -11.0805  -8.7794  -8.2598  -0.5595   0.1997   1.0004   1.3509

          k = 0.0667 0.1925 0.0000 (  4968 PWs)   bands (ev):

   -22.4941 -10.6318  -9.9691  -8.9046  -0.0326   0.7306   1.5377   1.8834

          k = 0.0667 0.2694 0.0000 (  4948 PWs)   bands (ev):

   -21.9164 -11.4560  -9.9709  -9.5838   0.7562   1.5156   2.1804   2.3424

          k = 0.0667 0.3464 0.0000 (  4923 PWs)   bands (ev):

   -21.1554 -13.0590 -10.1802  -9.1199   0.6120   1.8021   2.5923   2.6191

          k = 0.0667 0.4234 0.0000 (  4911 PWs)   bands (ev):

   -20.2249 -14.6522 -10.6349  -8.1263  -0.9593   2.3339   3.1202   3.9012

          k = 0.0667 0.5004 0.0000 (  4880 PWs)   bands (ev):

   -19.1682 -16.1265 -10.9174  -7.1336  -2.3320   2.1609   4.6667   5.4483

          k = 0.0667 0.5774 0.0000 (  4878 PWs)   bands (ev):

   -18.3914 -17.0455 -11.0129  -6.6187  -2.9809   2.0999   6.3523   6.5204

          k = 0.1333 0.2309 0.0000 (  4957 PWs)   bands (ev):

   -22.0124 -11.0306 -10.0794  -9.7581   0.6253   1.3920   2.2096   2.4258

          k = 0.1333 0.3079 0.0000 (  4931 PWs)   bands (ev):

   -21.3445 -12.3436 -10.5779  -9.3243   1.0682   1.5438   2.3151   3.1490

          k = 0.1333 0.3849 0.0000 (  4918 PWs)   bands (ev):

   -20.5007 -13.8151 -11.2022  -8.3981  -0.3987   2.7170   3.4891   3.6568

          k = 0.1333 0.4619 0.0000 (  4904 PWs)   bands (ev):

   -19.5033 -15.2935 -11.6166  -7.3753  -1.8310   3.4187   4.1535   4.8919

          k = 0.1333 0.5389 0.0000 (  4891 PWs)   bands (ev):

   -18.4641 -16.5894 -11.8233  -6.5101  -2.9156   3.3006   5.7958   6.4044

          k = 0.2000 0.3464 0.0000 (  4943 PWs)   bands (ev):

   -20.5933 -13.3351 -11.6188  -8.4905  -0.1772   2.5890   3.3469   4.2219

          k = 0.2000 0.4234 0.0000 (  4919 PWs)   bands (ev):

   -19.6777 -14.5255 -12.3746  -7.5101  -1.4854   3.8819   4.5950   5.1670

          k = 0.2000 0.5004 0.0000 (  4914 PWs)   bands (ev):

   -18.6420 -15.8073 -12.7882  -6.4980  -2.7134   4.9613   5.4242   5.8808

          k = 0.2000 0.5774 0.0000 (  4912 PWs)   bands (ev):

   -17.8730 -16.6722 -12.9187  -5.9271  -3.3599   4.9050   6.4561   6.9403

          k = 0.2667 0.4619 0.0000 (  4921 PWs)   bands (ev):

   -18.7131 -15.3138 -13.3473  -6.5052  -2.6062   5.2705   5.6765   6.6318

          k = 0.2667 0.5389 0.0000 (  4911 PWs)   bands (ev):

   -17.7035 -16.2529 -13.8401  -5.5433  -3.6198   6.0298   6.5341   6.8404

          k = 0.3333 0.5774 0.0000 (  4884 PWs)   bands (ev):

   -16.8412 -16.8412 -14.3090  -4.5682  -4.5682   5.8807   7.3722   7.3722

     the Fermi energy is    -4.5682 ev

!    total energy              =     -22.77611085 Ry
     estimated scf accuracy    <          5.5E-10 Ry
     smearing contrib. (-TS)   =      -0.00005015 Ry
     internal energy E=F+TS    =     -22.77606070 Ry

     The total energy is F=E-TS. E is the sum of the following terms:
     one-electron contribution =    -356.73873925 Ry
     hartree contribution      =     178.91440606 Ry
     xc contribution           =      -6.84320406 Ry
     ewald contribution        =     161.89147655 Ry

     convergence has been achieved in   6 iterations

     Forces acting on atoms (cartesian axes, Ry/au):

     atom    1 type  1   force =     0.00000000    0.00000000    0.00000000
     atom    2 type  1   force =     0.00000000    0.00000000    0.00000000

     Total force =     0.000000     Total SCF correction =     0.000000


     Computing stress (Cartesian axis) and pressure

          total   stress  (Ry/bohr**3)                   (kbar)     P=      -56.67
  -0.00052992   0.00000000   0.00000000          -77.95        0.00        0.00
   0.00000000  -0.00052992  -0.00000000            0.00      -77.95       -0.00
   0.00000000   0.00000000  -0.00009583            0.00        0.00      -14.10


     Writing output data file ./work/LiC485.save/
 
     init_run     :      0.07s CPU      0.09s WALL (       1 calls)
     electrons    :      1.27s CPU      1.39s WALL (       1 calls)
     forces       :      0.01s CPU      0.01s WALL (       1 calls)
     stress       :      0.02s CPU      0.02s WALL (       1 calls)

     Called by init_run:
     wfcinit      :      0.06s CPU      0.07s WALL (       1 calls)
     potinit      :      0.00s CPU      0.01s WALL (       1 calls)
     hinit0       :      0.00s CPU      0.00s WALL (       1 calls)

     Called by electrons:
     c_bands      :      1.15s CPU      1.23s WALL (       6 calls)
     sum_band     :      0.11s CPU      0.12s WALL (       6 calls)
     v_of_rho     :      0.01s CPU      0.01s WALL (       7 calls)
     mix_rho      :      0.00s CPU      0.00s WALL (       6 calls)

     Called by c_bands:
     init_us_2    :      0.01s CPU      0.01s WALL (     405 calls)
     cegterg      :      1.13s CPU      1.21s WALL (     162 calls)

     Called by *egterg:
     cdiaghg      :      0.11s CPU      0.12s WALL (    1174 calls)
     h_psi        :      0.98s CPU      1.06s WALL (    1201 calls)
     g_psi        :      0.00s CPU      0.00s WALL (    1012 calls)

     Called by h_psi:
     h_psi:calbec :      0.04s CPU      0.04s WALL (    1201 calls)
     vloc_psi     :      0.92s CPU      0.99s WALL (    1201 calls)
     add_vuspsi   :      0.01s CPU      0.01s WALL (    1201 calls)

     General routines
     calbec       :      0.04s CPU      0.05s WALL (    1336 calls)
     fft          :      0.01s CPU      0.01s WALL (      77 calls)
     ffts         :      0.00s CPU      0.00s WALL (       6 calls)
     fftw         :      0.97s CPU      1.04s WALL (   13322 calls)
 
     Parallel routines
     fft_scatt_xy :      0.06s CPU      0.07s WALL (   13405 calls)
     fft_scatt_yz :      0.58s CPU      0.62s WALL (   13405 calls)
 
     PWSCF        :      1.42s CPU      1.79s WALL

 
   This run was terminated on:  11: 1:45  22Jan2024            

=------------------------------------------------------------------------------=
   JOB DONE.
=------------------------------------------------------------------------------=
