
     Program PWSCF v.6.7MaX starts on 22Jan2024 at 11: 1: 5 

     This program is part of the open-source Quantum ESPRESSO suite
     for quantum simulation of materials; please cite
         "P. Giannozzi et al., J. Phys.:Condens. Matter 21 395502 (2009);
         "P. Giannozzi et al., J. Phys.:Condens. Matter 29 465901 (2017);
          URL http://www.quantum-espresso.org", 
     in publications or presentations arising from this work. More details at
     http://www.quantum-espresso.org/quote

     Parallel version (MPI), running on    32 processors

     MPI processes distributed on     1 nodes
     R & G space division:  proc/nbgrp/npool/nimage =      32
     Waiting for input...
     Reading input from standard input
Warning: card &CELL ignored
Warning: card  CELL_DYNAMICS = 'BFGS', ignored
Warning: card  PRESS = 0.0, ignored
Warning: card  PRESS_CONV_THR = 1D-3, ignored
Warning: card  CELL_DOFREE='2DXY' ignored
Warning: card / ignored

     Current dimensions of program PWSCF are:
     Max number of different atomic species (ntypx) = 10
     Max number of k-points (npk) =  40000
     Max angular momentum in pseudopotentials (lmaxx) =  3
     Message from routine read_pp_mesh:
     mesh size missing, using the one in header

     Subspace diagonalization in iterative solution of the eigenvalue problem:
     a serial algorithm will be used

 
     Parallelization info
     --------------------
     sticks:   dense  smooth     PW     G-vecs:    dense   smooth      PW
     Min           9       9      2                 1131     1131     170
     Max          10      10      3                 1168     1168     217
     Sum         301     301     91                36639    36639    6481
 


     bravais-lattice index     =            4
     lattice parameter (alat)  =       4.6700  a.u.
     unit-cell volume          =     764.9260 (a.u.)^3
     number of atoms/cell      =            2
     number of atomic types    =            1
     number of electrons       =         8.00
     number of Kohn-Sham states=            8
     kinetic-energy cutoff     =      50.0000  Ry
     charge density cutoff     =     200.0000  Ry
     scf convergence threshold =      1.0E-08
     mixing beta               =       0.7000
     number of iterations used =            8  plain     mixing
     Exchange-correlation= PBE
                           (   1   4   3   4   0   0   0)

     celldm(1)=   4.670000  celldm(2)=   0.000000  celldm(3)=   8.672377
     celldm(4)=   0.000000  celldm(5)=   0.000000  celldm(6)=   0.000000

     crystal axes: (cart. coord. in units of alat)
               a(1) = (   1.000000   0.000000   0.000000 )  
               a(2) = (  -0.500000   0.866025   0.000000 )  
               a(3) = (   0.000000   0.000000   8.672377 )  

     reciprocal axes: (cart. coord. in units 2 pi/alat)
               b(1) = (  1.000000  0.577350  0.000000 )  
               b(2) = (  0.000000  1.154701  0.000000 )  
               b(3) = (  0.000000  0.000000  0.115309 )  


     PseudoPot. # 1 for C  read from file:
     /home/yhkim/qe-6.7/pseudo/ONCV1/1.2/C_ONCV_PBE-1.2.upf
     MD5 check sum: 1a5f83a7b1f58d24996abe00ed223ac6
     Pseudo is Norm-conserving, Zval =  4.0
     Generated using ONCVPSP code by D. R. Hamann
     Using radial grid of  602 points,  4 beta functions with: 
                l(1) =   0
                l(2) =   0
                l(3) =   1
                l(4) =   1

     atomic species   valence    mass     pseudopotential
        C              4.00    12.01070     C ( 1.00)

     24 Sym. Ops., with inversion, found



   Cartesian axes

     site n.     atom                  positions (alat units)
         1           C   tau(   1) = (  -0.0000000   0.5773503   4.3361884  )
         2           C   tau(   2) = (   0.5000000   0.2886751   4.3361884  )

     number of k points=    27  Methfessel-Paxton smearing, width (Ry)=  0.0100
                       cart. coord. in units 2pi/alat
        k(    1) = (   0.0000000   0.0000000   0.0000000), wk =   0.0088889
        k(    2) = (   0.0000000   0.0769800   0.0000000), wk =   0.0533333
        k(    3) = (   0.0000000   0.1539601   0.0000000), wk =   0.0533333
        k(    4) = (   0.0000000   0.2309401   0.0000000), wk =   0.0533333
        k(    5) = (   0.0000000   0.3079201   0.0000000), wk =   0.0533333
        k(    6) = (   0.0000000   0.3849002   0.0000000), wk =   0.0533333
        k(    7) = (   0.0000000   0.4618802   0.0000000), wk =   0.0533333
        k(    8) = (   0.0000000   0.5388603   0.0000000), wk =   0.0533333
        k(    9) = (   0.0666667   0.1154701   0.0000000), wk =   0.0533333
        k(   10) = (   0.0666667   0.1924501   0.0000000), wk =   0.1066667
        k(   11) = (   0.0666667   0.2694301   0.0000000), wk =   0.1066667
        k(   12) = (   0.0666667   0.3464102   0.0000000), wk =   0.1066667
        k(   13) = (   0.0666667   0.4233902   0.0000000), wk =   0.1066667
        k(   14) = (   0.0666667   0.5003702   0.0000000), wk =   0.1066667
        k(   15) = (   0.0666667   0.5773503   0.0000000), wk =   0.0533333
        k(   16) = (   0.1333333   0.2309401   0.0000000), wk =   0.0533333
        k(   17) = (   0.1333333   0.3079201   0.0000000), wk =   0.1066667
        k(   18) = (   0.1333333   0.3849002   0.0000000), wk =   0.1066667
        k(   19) = (   0.1333333   0.4618802   0.0000000), wk =   0.1066667
        k(   20) = (   0.1333333   0.5388603   0.0000000), wk =   0.1066667
        k(   21) = (   0.2000000   0.3464102   0.0000000), wk =   0.0533333
        k(   22) = (   0.2000000   0.4233902   0.0000000), wk =   0.1066667
        k(   23) = (   0.2000000   0.5003702   0.0000000), wk =   0.1066667
        k(   24) = (   0.2000000   0.5773503   0.0000000), wk =   0.0533333
        k(   25) = (   0.2666667   0.4618802   0.0000000), wk =   0.0533333
        k(   26) = (   0.2666667   0.5388603   0.0000000), wk =   0.1066667
        k(   27) = (   0.3333333   0.5773503   0.0000000), wk =   0.0177778

     Dense  grid:    36639 G-vectors     FFT dimensions: (  24,  24, 192)

     Estimated max dynamical RAM per process >       1.64 MB

     Estimated total dynamical RAM >      52.38 MB
 ----2D----2D----2D----2D----2D----2D----2D----2D----2D----2D----2D----2D
  The code is running with the 2D cutoff
  Please refer to:
  Sohier, T., Calandra, M., & Mauri, F. (2017), 
  Density functional perturbation theory for gated two-dimensional heterostructu
 res:
  Theoretical developments and application to flexural phonons in graphene.
  Physical Review B, 96(7), 75448. https://doi.org/10.1103/PhysRevB.96.075448
 ----2D----2D----2D----2D----2D----2D----2D----2D----2D----2D----2D----2D

     Initial potential from superposition of free atoms

     starting charge    7.98607, renormalised to    8.00000

     negative rho (up, down):  1.142E-04 0.000E+00
     Starting wfcs are random

     total cpu time spent up to now is        0.1 secs

     Self-consistent Calculation

     iteration #  1     ecut=    50.00 Ry     beta= 0.70
     Davidson diagonalization with overlap
     ethr =  1.00E-02,  avg # of iterations = 11.3

     negative rho (up, down):  6.159E-08 0.000E+00

     total cpu time spent up to now is        0.5 secs

     total energy              =     -22.76211922 Ry
     estimated scf accuracy    <       0.16101653 Ry

     iteration #  2     ecut=    50.00 Ry     beta= 0.70
     Davidson diagonalization with overlap
     ethr =  2.01E-03,  avg # of iterations =  2.1

     total cpu time spent up to now is        0.6 secs

     total energy              =     -22.78766551 Ry
     estimated scf accuracy    <       0.00218117 Ry

     iteration #  3     ecut=    50.00 Ry     beta= 0.70
     Davidson diagonalization with overlap
     ethr =  2.73E-05,  avg # of iterations =  9.8

     total cpu time spent up to now is        0.8 secs

     total energy              =     -22.79096231 Ry
     estimated scf accuracy    <       0.00014268 Ry

     iteration #  4     ecut=    50.00 Ry     beta= 0.70
     Davidson diagonalization with overlap
     c_bands:  1 eigenvalues not converged
     ethr =  1.78E-06,  avg # of iterations =  6.3

     total cpu time spent up to now is        1.0 secs

     total energy              =     -22.79100277 Ry
     estimated scf accuracy    <       0.00000019 Ry

     iteration #  5     ecut=    50.00 Ry     beta= 0.70
     Davidson diagonalization with overlap
     ethr =  2.42E-09,  avg # of iterations =  4.6

     total cpu time spent up to now is        1.2 secs

     total energy              =     -22.79100550 Ry
     estimated scf accuracy    <       0.00000003 Ry

     iteration #  6     ecut=    50.00 Ry     beta= 0.70
     Davidson diagonalization with overlap
     ethr =  3.47E-10,  avg # of iterations =  2.0

     total cpu time spent up to now is        1.3 secs

     End of self-consistent calculation

          k = 0.0000 0.0000 0.0000 (  4531 PWs)   bands (ev):

   -23.7557 -11.8468  -7.3500  -7.3500  -0.9785  -0.2026   0.5868   0.9415

          k = 0.0000 0.0770 0.0000 (  4551 PWs)   bands (ev):

   -23.6513 -11.7208  -7.7715  -7.5699  -0.8366  -0.0587   0.7316   1.0858

          k = 0.0000 0.1540 0.0000 (  4585 PWs)   bands (ev):

   -23.3388 -11.3485  -8.8939  -8.1276  -0.4108   0.3725   1.1663   1.5182

          k = 0.0000 0.2309 0.0000 (  4589 PWs)   bands (ev):

   -22.8204 -10.7355 -10.4327  -8.8271   0.2983   1.0886   1.8905   2.2363

          k = 0.0000 0.3079 0.0000 (  4573 PWs)   bands (ev):

   -22.1003 -12.1550  -9.8972  -9.5069   1.2884   2.0436   2.5328   2.9015

          k = 0.0000 0.3849 0.0000 (  4577 PWs)   bands (ev):

   -21.1860 -13.9126 -10.0754  -8.8651   0.6302   2.5492   3.3851   3.3989

          k = 0.0000 0.4619 0.0000 (  4579 PWs)   bands (ev):

   -20.0942 -15.6022 -10.4770  -7.7273  -1.1061   3.1518   4.1256   4.9574

          k = 0.0000 0.5389 0.0000 (  4594 PWs)   bands (ev):

   -18.9049 -17.1006 -10.6838  -6.7771  -2.3761   3.0512   5.9208   6.7760

          k = 0.0667 0.1155 0.0000 (  4573 PWs)   bands (ev):

   -23.4429 -11.4723  -8.4928  -8.0107  -0.5527   0.2289   1.0214   1.3742

          k = 0.0667 0.1925 0.0000 (  4580 PWs)   bands (ev):

   -23.0274 -10.9789  -9.7341  -8.7302   0.0151   0.8030   1.6010   1.9500

          k = 0.0667 0.2694 0.0000 (  4565 PWs)   bands (ev):

   -22.4081 -11.3064 -10.2521  -9.4794   0.8654   1.6578   2.4702   2.8007

          k = 0.0667 0.3464 0.0000 (  4569 PWs)   bands (ev):

   -21.5908 -13.0164 -10.1354  -9.3124   1.4632   1.9948   2.8267   3.6200

          k = 0.0667 0.4234 0.0000 (  4579 PWs)   bands (ev):

   -20.5864 -14.7262 -10.6354  -8.2119  -0.3122   3.3742   3.7592   4.2401

          k = 0.0667 0.5004 0.0000 (  4575 PWs)   bands (ev):

   -19.4257 -16.3328 -10.9457  -7.1019  -1.8668   3.5566   5.0932   5.9229

          k = 0.0667 0.5774 0.0000 (  4598 PWs)   bands (ev):

   -18.4832 -17.4282 -11.0507  -6.5184  -2.6074   3.5040   6.9301   7.0883

          k = 0.1333 0.2309 0.0000 (  4559 PWs)   bands (ev):

   -22.5110 -10.8294 -10.3710  -9.6827   0.7245   1.5186   2.3258   2.6685

          k = 0.1333 0.3079 0.0000 (  4561 PWs)   bands (ev):

   -21.7945 -12.2177 -10.5823  -9.5391   1.7152   2.0062   2.5232   3.3397

          k = 0.1333 0.3849 0.0000 (  4562 PWs)   bands (ev):

   -20.8860 -13.7987 -11.2517  -8.5150   0.3456   2.9823   3.7932   4.6371

          k = 0.1333 0.4619 0.0000 (  4568 PWs)   bands (ev):

   -19.8037 -15.4011 -11.6944  -7.3779  -1.2722   4.5004   4.9121   5.3203

          k = 0.1333 0.5389 0.0000 (  4567 PWs)   bands (ev):

   -18.6292 -16.8530 -11.9152  -6.4054  -2.5017   4.7704   6.3179   6.9944

          k = 0.2000 0.3464 0.0000 (  4569 PWs)   bands (ev):

   -20.9867 -13.2305 -11.7432  -8.6187   0.6151   2.8433   3.6374   4.4981

          k = 0.2000 0.4234 0.0000 (  4543 PWs)   bands (ev):

   -19.9975 -14.5053 -12.5572  -7.5308  -0.8521   4.2414   4.9976   5.9413

          k = 0.2000 0.5004 0.0000 (  4563 PWs)   bands (ev):

   -18.8619 -15.9202 -12.9844  -6.4025  -2.2333   5.8819   6.4170   6.5560

          k = 0.2000 0.5774 0.0000 (  4568 PWs)   bands (ev):

   -17.9456 -16.9457 -13.1169  -5.7581  -2.9649   6.4718   7.0562   7.6241

          k = 0.2667 0.4619 0.0000 (  4529 PWs)   bands (ev):

   -18.9485 -15.2879 -13.6674  -6.4129  -2.0902   5.7510   6.1869   7.4779

          k = 0.2667 0.5389 0.0000 (  4550 PWs)   bands (ev):

   -17.8213 -16.3257 -14.2062  -5.3407  -3.2211   6.5428   7.4277   8.2246

          k = 0.3333 0.5774 0.0000 (  4545 PWs)   bands (ev):

   -16.8752 -16.8752 -14.8091  -4.2605  -4.2605   6.3520   8.5750   8.5752

     the Fermi energy is    -4.2605 ev

!    total energy              =     -22.79100550 Ry
     estimated scf accuracy    <          4.6E-10 Ry
     smearing contrib. (-TS)   =      -0.00005015 Ry
     internal energy E=F+TS    =     -22.79095535 Ry

     The total energy is F=E-TS. E is the sum of the following terms:
     one-electron contribution =    -385.07310187 Ry
     hartree contribution      =     193.15069138 Ry
     xc contribution           =      -7.00052569 Ry
     ewald contribution        =     176.13198083 Ry

     convergence has been achieved in   6 iterations

     Forces acting on atoms (cartesian axes, Ry/au):

     atom    1 type  1   force =    -0.00000000   -0.00000000    0.00000000
     atom    2 type  1   force =     0.00000000    0.00000000    0.00000000

     Total force =     0.000000     Total SCF correction =     0.000000


     Computing stress (Cartesian axis) and pressure

          total   stress  (Ry/bohr**3)                   (kbar)     P=      -18.23
  -0.00013245   0.00000000  -0.00000000          -19.48        0.00       -0.00
   0.00000000  -0.00013245   0.00000000            0.00      -19.48        0.00
   0.00000000  -0.00000000  -0.00010687            0.00       -0.00      -15.72


     Writing output data file ./work/LiC467.save/
 
     init_run     :      0.06s CPU      0.08s WALL (       1 calls)
     electrons    :      1.06s CPU      1.18s WALL (       1 calls)
     forces       :      0.01s CPU      0.01s WALL (       1 calls)
     stress       :      0.02s CPU      0.02s WALL (       1 calls)

     Called by init_run:
     wfcinit      :      0.05s CPU      0.06s WALL (       1 calls)
     potinit      :      0.01s CPU      0.01s WALL (       1 calls)
     hinit0       :      0.00s CPU      0.00s WALL (       1 calls)

     Called by electrons:
     c_bands      :      0.95s CPU      1.04s WALL (       6 calls)
     sum_band     :      0.09s CPU      0.10s WALL (       6 calls)
     v_of_rho     :      0.01s CPU      0.02s WALL (       7 calls)
     mix_rho      :      0.00s CPU      0.00s WALL (       6 calls)

     Called by c_bands:
     init_us_2    :      0.01s CPU      0.01s WALL (     405 calls)
     cegterg      :      0.93s CPU      1.02s WALL (     162 calls)

     Called by *egterg:
     cdiaghg      :      0.10s CPU      0.11s WALL (    1135 calls)
     h_psi        :      0.78s CPU      0.87s WALL (    1162 calls)
     g_psi        :      0.00s CPU      0.00s WALL (     973 calls)

     Called by h_psi:
     h_psi:calbec :      0.03s CPU      0.03s WALL (    1162 calls)
     vloc_psi     :      0.74s CPU      0.81s WALL (    1162 calls)
     add_vuspsi   :      0.01s CPU      0.01s WALL (    1162 calls)

     General routines
     calbec       :      0.04s CPU      0.04s WALL (    1297 calls)
     fft          :      0.01s CPU      0.01s WALL (      77 calls)
     ffts         :      0.00s CPU      0.00s WALL (       6 calls)
     fftw         :      0.77s CPU      0.85s WALL (   13142 calls)
 
     Parallel routines
     fft_scatt_xy :      0.06s CPU      0.06s WALL (   13225 calls)
     fft_scatt_yz :      0.40s CPU      0.44s WALL (   13225 calls)
 
     PWSCF        :      1.19s CPU      1.57s WALL

 
   This run was terminated on:  11: 1: 6  22Jan2024            

=------------------------------------------------------------------------------=
   JOB DONE.
=------------------------------------------------------------------------------=
