
     Program PWSCF v.6.7MaX starts on 22Jan2024 at 11: 1:51 

     This program is part of the open-source Quantum ESPRESSO suite
     for quantum simulation of materials; please cite
         "P. Giannozzi et al., J. Phys.:Condens. Matter 21 395502 (2009);
         "P. Giannozzi et al., J. Phys.:Condens. Matter 29 465901 (2017);
          URL http://www.quantum-espresso.org", 
     in publications or presentations arising from this work. More details at
     http://www.quantum-espresso.org/quote

     Parallel version (MPI), running on    32 processors

     MPI processes distributed on     1 nodes
     R & G space division:  proc/nbgrp/npool/nimage =      32
     Waiting for input...
     Reading input from standard input
Warning: card &CELL ignored
Warning: card  CELL_DYNAMICS = 'BFGS', ignored
Warning: card  PRESS = 0.0, ignored
Warning: card  PRESS_CONV_THR = 1D-3, ignored
Warning: card  CELL_DOFREE='2DXY' ignored
Warning: card / ignored

     Current dimensions of program PWSCF are:
     Max number of different atomic species (ntypx) = 10
     Max number of k-points (npk) =  40000
     Max angular momentum in pseudopotentials (lmaxx) =  3
     Message from routine read_pp_mesh:
     mesh size missing, using the one in header

     Subspace diagonalization in iterative solution of the eigenvalue problem:
     a serial algorithm will be used

 
     Parallelization info
     --------------------
     sticks:   dense  smooth     PW     G-vecs:    dense   smooth      PW
     Min           9       9      3                 1195     1195     210
     Max          10      10      5                 1256     1256     225
     Sum         313     313    109                39579    39579    7051
 


     bravais-lattice index     =            4
     lattice parameter (alat)  =       4.8800  a.u.
     unit-cell volume          =     835.2670 (a.u.)^3
     number of atoms/cell      =            2
     number of atomic types    =            1
     number of electrons       =         8.00
     number of Kohn-Sham states=            8
     kinetic-energy cutoff     =      50.0000  Ry
     charge density cutoff     =     200.0000  Ry
     scf convergence threshold =      1.0E-08
     mixing beta               =       0.7000
     number of iterations used =            8  plain     mixing
     Exchange-correlation= PBE
                           (   1   4   3   4   0   0   0)

     celldm(1)=   4.880000  celldm(2)=   0.000000  celldm(3)=   8.299180
     celldm(4)=   0.000000  celldm(5)=   0.000000  celldm(6)=   0.000000

     crystal axes: (cart. coord. in units of alat)
               a(1) = (   1.000000   0.000000   0.000000 )  
               a(2) = (  -0.500000   0.866025   0.000000 )  
               a(3) = (   0.000000   0.000000   8.299180 )  

     reciprocal axes: (cart. coord. in units 2 pi/alat)
               b(1) = (  1.000000  0.577350  0.000000 )  
               b(2) = (  0.000000  1.154701  0.000000 )  
               b(3) = (  0.000000  0.000000  0.120494 )  


     PseudoPot. # 1 for C  read from file:
     /home/yhkim/qe-6.7/pseudo/ONCV1/1.2/C_ONCV_PBE-1.2.upf
     MD5 check sum: 1a5f83a7b1f58d24996abe00ed223ac6
     Pseudo is Norm-conserving, Zval =  4.0
     Generated using ONCVPSP code by D. R. Hamann
     Using radial grid of  602 points,  4 beta functions with: 
                l(1) =   0
                l(2) =   0
                l(3) =   1
                l(4) =   1

     atomic species   valence    mass     pseudopotential
        C              4.00    12.01070     C ( 1.00)

     24 Sym. Ops., with inversion, found



   Cartesian axes

     site n.     atom                  positions (alat units)
         1           C   tau(   1) = (  -0.0000000   0.5773503   4.1495902  )
         2           C   tau(   2) = (   0.5000000   0.2886751   4.1495902  )

     number of k points=    27  Methfessel-Paxton smearing, width (Ry)=  0.0100
                       cart. coord. in units 2pi/alat
        k(    1) = (   0.0000000   0.0000000   0.0000000), wk =   0.0088889
        k(    2) = (   0.0000000   0.0769800   0.0000000), wk =   0.0533333
        k(    3) = (   0.0000000   0.1539601   0.0000000), wk =   0.0533333
        k(    4) = (   0.0000000   0.2309401   0.0000000), wk =   0.0533333
        k(    5) = (   0.0000000   0.3079201   0.0000000), wk =   0.0533333
        k(    6) = (   0.0000000   0.3849002   0.0000000), wk =   0.0533333
        k(    7) = (   0.0000000   0.4618802   0.0000000), wk =   0.0533333
        k(    8) = (   0.0000000   0.5388603   0.0000000), wk =   0.0533333
        k(    9) = (   0.0666667   0.1154701   0.0000000), wk =   0.0533333
        k(   10) = (   0.0666667   0.1924501   0.0000000), wk =   0.1066667
        k(   11) = (   0.0666667   0.2694301   0.0000000), wk =   0.1066667
        k(   12) = (   0.0666667   0.3464102   0.0000000), wk =   0.1066667
        k(   13) = (   0.0666667   0.4233902   0.0000000), wk =   0.1066667
        k(   14) = (   0.0666667   0.5003702   0.0000000), wk =   0.1066667
        k(   15) = (   0.0666667   0.5773503   0.0000000), wk =   0.0533333
        k(   16) = (   0.1333333   0.2309401   0.0000000), wk =   0.0533333
        k(   17) = (   0.1333333   0.3079201   0.0000000), wk =   0.1066667
        k(   18) = (   0.1333333   0.3849002   0.0000000), wk =   0.1066667
        k(   19) = (   0.1333333   0.4618802   0.0000000), wk =   0.1066667
        k(   20) = (   0.1333333   0.5388603   0.0000000), wk =   0.1066667
        k(   21) = (   0.2000000   0.3464102   0.0000000), wk =   0.0533333
        k(   22) = (   0.2000000   0.4233902   0.0000000), wk =   0.1066667
        k(   23) = (   0.2000000   0.5003702   0.0000000), wk =   0.1066667
        k(   24) = (   0.2000000   0.5773503   0.0000000), wk =   0.0533333
        k(   25) = (   0.2666667   0.4618802   0.0000000), wk =   0.0533333
        k(   26) = (   0.2666667   0.5388603   0.0000000), wk =   0.1066667
        k(   27) = (   0.3333333   0.5773503   0.0000000), wk =   0.0177778

     Dense  grid:    39579 G-vectors     FFT dimensions: (  24,  24, 192)

     Estimated max dynamical RAM per process >       1.74 MB

     Estimated total dynamical RAM >      55.56 MB
 ----2D----2D----2D----2D----2D----2D----2D----2D----2D----2D----2D----2D
  The code is running with the 2D cutoff
  Please refer to:
  Sohier, T., Calandra, M., & Mauri, F. (2017), 
  Density functional perturbation theory for gated two-dimensional heterostructu
 res:
  Theoretical developments and application to flexural phonons in graphene.
  Physical Review B, 96(7), 75448. https://doi.org/10.1103/PhysRevB.96.075448
 ----2D----2D----2D----2D----2D----2D----2D----2D----2D----2D----2D----2D

     Initial potential from superposition of free atoms

     starting charge    7.98607, renormalised to    8.00000

     negative rho (up, down):  1.199E-04 0.000E+00
     Starting wfcs are random

     total cpu time spent up to now is        0.1 secs

     Self-consistent Calculation

     iteration #  1     ecut=    50.00 Ry     beta= 0.70
     Davidson diagonalization with overlap
     ethr =  1.00E-02,  avg # of iterations = 12.2

     negative rho (up, down):  1.065E-07 0.000E+00

     total cpu time spent up to now is        0.6 secs

     total energy              =     -22.74894144 Ry
     estimated scf accuracy    <       0.10825090 Ry

     iteration #  2     ecut=    50.00 Ry     beta= 0.70
     Davidson diagonalization with overlap
     ethr =  1.35E-03,  avg # of iterations =  2.1

     total cpu time spent up to now is        0.7 secs

     total energy              =     -22.76804300 Ry
     estimated scf accuracy    <       0.00201484 Ry

     iteration #  3     ecut=    50.00 Ry     beta= 0.70
     Davidson diagonalization with overlap
     c_bands:  1 eigenvalues not converged
     c_bands:  1 eigenvalues not converged
     ethr =  2.52E-05,  avg # of iterations =  9.8

     total cpu time spent up to now is        1.0 secs

     total energy              =     -22.77124038 Ry
     estimated scf accuracy    <       0.00012214 Ry

     iteration #  4     ecut=    50.00 Ry     beta= 0.70
     Davidson diagonalization with overlap
     ethr =  1.53E-06,  avg # of iterations =  6.2

     total cpu time spent up to now is        1.2 secs

     total energy              =     -22.77127794 Ry
     estimated scf accuracy    <       0.00000017 Ry

     iteration #  5     ecut=    50.00 Ry     beta= 0.70
     Davidson diagonalization with overlap
     ethr =  2.07E-09,  avg # of iterations =  4.9

     total cpu time spent up to now is        1.4 secs

     total energy              =     -22.77128085 Ry
     estimated scf accuracy    <       0.00000002 Ry

     iteration #  6     ecut=    50.00 Ry     beta= 0.70
     Davidson diagonalization with overlap
     ethr =  3.04E-10,  avg # of iterations =  2.0

     total cpu time spent up to now is        1.5 secs

     End of self-consistent calculation

          k = 0.0000 0.0000 0.0000 (  5083 PWs)   bands (ev):

   -23.0797 -11.3541  -7.7176  -7.7176  -0.9509  -0.1990   0.5987   0.9517

          k = 0.0000 0.0770 0.0000 (  5077 PWs)   bands (ev):

   -22.9832 -11.2418  -8.1250  -7.9101  -0.8207  -0.0676   0.7314   1.0835

          k = 0.0000 0.1540 0.0000 (  5061 PWs)   bands (ev):

   -22.6946 -10.9075  -9.1955  -8.3981  -0.4301   0.3262   1.1296   1.4785

          k = 0.0000 0.2309 0.0000 (  5027 PWs)   bands (ev):

   -22.2162 -10.6464 -10.3588  -9.0148   0.2200   0.9792   1.7923   2.1322

          k = 0.0000 0.3079 0.0000 (  5012 PWs)   bands (ev):

   -21.5529 -12.2558  -9.6169  -9.6101   1.1267   1.3333   1.9273   2.1339

          k = 0.0000 0.3849 0.0000 (  4982 PWs)   bands (ev):

   -20.7135 -13.8829 -10.1203  -8.6914  -0.2340   1.8048   2.3042   3.0812

          k = 0.0000 0.4619 0.0000 (  4958 PWs)   bands (ev):

   -19.7216 -15.4317 -10.4763  -7.6864  -1.7391   1.5787   3.7117   4.5010

          k = 0.0000 0.5389 0.0000 (  4910 PWs)   bands (ev):

   -18.6946 -16.7444 -10.6581  -6.8592  -2.8322   1.4581   5.3584   6.1457

          k = 0.0667 0.1155 0.0000 (  5065 PWs)   bands (ev):

   -22.7907 -11.0187  -8.8200  -8.2945  -0.5603   0.1950   0.9969   1.3469

          k = 0.0667 0.1925 0.0000 (  5024 PWs)   bands (ev):

   -22.4072 -10.5766 -10.0009  -8.9268  -0.0398   0.7191   1.5277   1.8728

          k = 0.0667 0.2694 0.0000 (  5000 PWs)   bands (ev):

   -21.8361 -11.4759  -9.9264  -9.5952   0.7395   1.4918   2.0168   2.3217

          k = 0.0667 0.3464 0.0000 (  4993 PWs)   bands (ev):

   -21.0843 -13.0635 -10.1827  -9.0888   0.4790   1.7720   2.4065   2.5561

          k = 0.0667 0.4234 0.0000 (  4969 PWs)   bands (ev):

   -20.1656 -14.6383 -10.6304  -8.1122  -1.0599   2.1191   3.0722   3.8481

          k = 0.0667 0.5004 0.0000 (  4945 PWs)   bands (ev):

   -19.1257 -16.0913 -10.9092  -7.1378  -2.4054   1.9427   4.6008   5.3739

          k = 0.0667 0.5774 0.0000 (  4932 PWs)   bands (ev):

   -18.3725 -16.9855 -11.0037  -6.6323  -3.0390   1.8814   6.2621   6.4321

          k = 0.1333 0.2309 0.0000 (  5001 PWs)   bands (ev):

   -21.9310 -11.0585 -10.0326  -9.7644   0.6101   1.3721   2.1912   2.2515

          k = 0.1333 0.3079 0.0000 (  4996 PWs)   bands (ev):

   -21.2711 -12.3609 -10.5727  -9.2904   0.9227   1.5174   2.2830   3.1184

          k = 0.1333 0.3849 0.0000 (  4989 PWs)   bands (ev):

   -20.4375 -13.8163 -11.1903  -8.3790  -0.5152   2.6756   3.4310   3.4416

          k = 0.1333 0.4619 0.0000 (  4959 PWs)   bands (ev):

   -19.4538 -15.2746 -11.5995  -7.3736  -1.9180   3.1911   4.0925   4.8248

          k = 0.1333 0.5389 0.0000 (  4961 PWs)   bands (ev):

   -18.4363 -16.5465 -11.8045  -6.5258  -2.9804   3.0702   5.7144   6.3123

          k = 0.2000 0.3464 0.0000 (  4997 PWs)   bands (ev):

   -20.5289 -13.3489 -11.5945  -8.4696  -0.2989   2.5496   3.3015   4.1783

          k = 0.2000 0.4234 0.0000 (  4977 PWs)   bands (ev):

   -19.6252 -14.5260 -12.3410  -7.5060  -1.5839   3.8259   4.5321   4.9229

          k = 0.2000 0.5004 0.0000 (  4972 PWs)   bands (ev):

   -18.6057 -15.7876 -12.7521  -6.5117  -2.7879   4.7186   5.3431   5.7976

          k = 0.2000 0.5774 0.0000 (  4958 PWs)   bands (ev):

   -17.8572 -16.6297 -12.8817  -5.9518  -3.4207   4.6583   6.3639   6.8296

          k = 0.2667 0.4619 0.0000 (  4994 PWs)   bands (ev):

   -18.6746 -15.3143 -13.2933  -6.5190  -2.6858   5.1948   5.5972   6.3423

          k = 0.2667 0.5389 0.0000 (  4990 PWs)   bands (ev):

   -17.6824 -16.2398 -13.7778  -5.5747  -3.6822   5.9507   6.2909   6.7103

          k = 0.3333 0.5774 0.0000 (  4992 PWs)   bands (ev):

   -16.8328 -16.8328 -14.2294  -4.6146  -4.6146   5.8079   7.1533   7.1534

     the Fermi energy is    -4.6146 ev

!    total energy              =     -22.77128086 Ry
     estimated scf accuracy    <          6.0E-10 Ry
     smearing contrib. (-TS)   =      -0.00005015 Ry
     internal energy E=F+TS    =     -22.77123071 Ry

     The total energy is F=E-TS. E is the sum of the following terms:
     one-electron contribution =    -352.32547863 Ry
     hartree contribution      =     176.69753329 Ry
     xc contribution           =      -6.81839121 Ry
     ewald contribution        =     159.67510584 Ry

     convergence has been achieved in   6 iterations

     Forces acting on atoms (cartesian axes, Ry/au):

     atom    1 type  1   force =     0.00000000    0.00000000    0.00000000
     atom    2 type  1   force =     0.00000000    0.00000000    0.00000000

     Total force =     0.000000     Total SCF correction =     0.000000


     Computing stress (Cartesian axis) and pressure

          total   stress  (Ry/bohr**3)                   (kbar)     P=      -61.72
  -0.00058228   0.00000000   0.00000000          -85.66        0.00        0.00
   0.00000000  -0.00058228  -0.00000000            0.00      -85.66       -0.00
   0.00000000   0.00000000  -0.00009410            0.00        0.00      -13.84


     Writing output data file ./work/LiC488.save/
 
     init_run     :      0.07s CPU      0.09s WALL (       1 calls)
     electrons    :      1.30s CPU      1.39s WALL (       1 calls)
     forces       :      0.01s CPU      0.01s WALL (       1 calls)
     stress       :      0.02s CPU      0.02s WALL (       1 calls)

     Called by init_run:
     wfcinit      :      0.06s CPU      0.07s WALL (       1 calls)
     potinit      :      0.00s CPU      0.01s WALL (       1 calls)
     hinit0       :      0.00s CPU      0.00s WALL (       1 calls)

     Called by electrons:
     c_bands      :      1.17s CPU      1.24s WALL (       6 calls)
     sum_band     :      0.11s CPU      0.12s WALL (       6 calls)
     v_of_rho     :      0.01s CPU      0.02s WALL (       7 calls)
     mix_rho      :      0.00s CPU      0.00s WALL (       6 calls)

     Called by c_bands:
     init_us_2    :      0.01s CPU      0.01s WALL (     405 calls)
     cegterg      :      1.15s CPU      1.21s WALL (     162 calls)

     Called by *egterg:
     cdiaghg      :      0.11s CPU      0.12s WALL (    1168 calls)
     h_psi        :      1.00s CPU      1.06s WALL (    1195 calls)
     g_psi        :      0.00s CPU      0.00s WALL (    1006 calls)

     Called by h_psi:
     h_psi:calbec :      0.04s CPU      0.04s WALL (    1195 calls)
     vloc_psi     :      0.94s CPU      0.99s WALL (    1195 calls)
     add_vuspsi   :      0.01s CPU      0.01s WALL (    1195 calls)

     General routines
     calbec       :      0.05s CPU      0.05s WALL (    1330 calls)
     fft          :      0.01s CPU      0.01s WALL (      77 calls)
     ffts         :      0.00s CPU      0.00s WALL (       6 calls)
     fftw         :      0.98s CPU      1.05s WALL (   13352 calls)
 
     Parallel routines
     fft_scatt_xy :      0.06s CPU      0.07s WALL (   13435 calls)
     fft_scatt_yz :      0.59s CPU      0.63s WALL (   13435 calls)
 
     PWSCF        :      1.45s CPU      1.80s WALL

 
   This run was terminated on:  11: 1:52  22Jan2024            

=------------------------------------------------------------------------------=
   JOB DONE.
=------------------------------------------------------------------------------=
