
     Program PWSCF v.6.7MaX starts on 22Jan2024 at 11: 1:11 

     This program is part of the open-source Quantum ESPRESSO suite
     for quantum simulation of materials; please cite
         "P. Giannozzi et al., J. Phys.:Condens. Matter 21 395502 (2009);
         "P. Giannozzi et al., J. Phys.:Condens. Matter 29 465901 (2017);
          URL http://www.quantum-espresso.org", 
     in publications or presentations arising from this work. More details at
     http://www.quantum-espresso.org/quote

     Parallel version (MPI), running on    32 processors

     MPI processes distributed on     1 nodes
     R & G space division:  proc/nbgrp/npool/nimage =      32
     Waiting for input...
     Reading input from standard input
Warning: card &CELL ignored
Warning: card  CELL_DYNAMICS = 'BFGS', ignored
Warning: card  PRESS = 0.0, ignored
Warning: card  PRESS_CONV_THR = 1D-3, ignored
Warning: card  CELL_DOFREE='2DXY' ignored
Warning: card / ignored

     Current dimensions of program PWSCF are:
     Max number of different atomic species (ntypx) = 10
     Max number of k-points (npk) =  40000
     Max angular momentum in pseudopotentials (lmaxx) =  3
     Message from routine read_pp_mesh:
     mesh size missing, using the one in header

     Subspace diagonalization in iterative solution of the eigenvalue problem:
     a serial algorithm will be used

 
     Parallelization info
     --------------------
     sticks:   dense  smooth     PW     G-vecs:    dense   smooth      PW
     Min           9       9      2                 1145     1145     170
     Max          10      10      3                 1186     1186     221
     Sum         313     313     91                37227    37227    6529
 


     bravais-lattice index     =            4
     lattice parameter (alat)  =       4.7100  a.u.
     unit-cell volume          =     778.0858 (a.u.)^3
     number of atoms/cell      =            2
     number of atomic types    =            1
     number of electrons       =         8.00
     number of Kohn-Sham states=            8
     kinetic-energy cutoff     =      50.0000  Ry
     charge density cutoff     =     200.0000  Ry
     scf convergence threshold =      1.0E-08
     mixing beta               =       0.7000
     number of iterations used =            8  plain     mixing
     Exchange-correlation= PBE
                           (   1   4   3   4   0   0   0)

     celldm(1)=   4.710000  celldm(2)=   0.000000  celldm(3)=   8.598726
     celldm(4)=   0.000000  celldm(5)=   0.000000  celldm(6)=   0.000000

     crystal axes: (cart. coord. in units of alat)
               a(1) = (   1.000000   0.000000   0.000000 )  
               a(2) = (  -0.500000   0.866025   0.000000 )  
               a(3) = (   0.000000   0.000000   8.598726 )  

     reciprocal axes: (cart. coord. in units 2 pi/alat)
               b(1) = (  1.000000  0.577350  0.000000 )  
               b(2) = (  0.000000  1.154701  0.000000 )  
               b(3) = (  0.000000  0.000000  0.116296 )  


     PseudoPot. # 1 for C  read from file:
     /home/yhkim/qe-6.7/pseudo/ONCV1/1.2/C_ONCV_PBE-1.2.upf
     MD5 check sum: 1a5f83a7b1f58d24996abe00ed223ac6
     Pseudo is Norm-conserving, Zval =  4.0
     Generated using ONCVPSP code by D. R. Hamann
     Using radial grid of  602 points,  4 beta functions with: 
                l(1) =   0
                l(2) =   0
                l(3) =   1
                l(4) =   1

     atomic species   valence    mass     pseudopotential
        C              4.00    12.01070     C ( 1.00)

     24 Sym. Ops., with inversion, found



   Cartesian axes

     site n.     atom                  positions (alat units)
         1           C   tau(   1) = (  -0.0000000   0.5773503   4.2993631  )
         2           C   tau(   2) = (   0.5000000   0.2886751   4.2993631  )

     number of k points=    27  Methfessel-Paxton smearing, width (Ry)=  0.0100
                       cart. coord. in units 2pi/alat
        k(    1) = (   0.0000000   0.0000000   0.0000000), wk =   0.0088889
        k(    2) = (   0.0000000   0.0769800   0.0000000), wk =   0.0533333
        k(    3) = (   0.0000000   0.1539601   0.0000000), wk =   0.0533333
        k(    4) = (   0.0000000   0.2309401   0.0000000), wk =   0.0533333
        k(    5) = (   0.0000000   0.3079201   0.0000000), wk =   0.0533333
        k(    6) = (   0.0000000   0.3849002   0.0000000), wk =   0.0533333
        k(    7) = (   0.0000000   0.4618802   0.0000000), wk =   0.0533333
        k(    8) = (   0.0000000   0.5388603   0.0000000), wk =   0.0533333
        k(    9) = (   0.0666667   0.1154701   0.0000000), wk =   0.0533333
        k(   10) = (   0.0666667   0.1924501   0.0000000), wk =   0.1066667
        k(   11) = (   0.0666667   0.2694301   0.0000000), wk =   0.1066667
        k(   12) = (   0.0666667   0.3464102   0.0000000), wk =   0.1066667
        k(   13) = (   0.0666667   0.4233902   0.0000000), wk =   0.1066667
        k(   14) = (   0.0666667   0.5003702   0.0000000), wk =   0.1066667
        k(   15) = (   0.0666667   0.5773503   0.0000000), wk =   0.0533333
        k(   16) = (   0.1333333   0.2309401   0.0000000), wk =   0.0533333
        k(   17) = (   0.1333333   0.3079201   0.0000000), wk =   0.1066667
        k(   18) = (   0.1333333   0.3849002   0.0000000), wk =   0.1066667
        k(   19) = (   0.1333333   0.4618802   0.0000000), wk =   0.1066667
        k(   20) = (   0.1333333   0.5388603   0.0000000), wk =   0.1066667
        k(   21) = (   0.2000000   0.3464102   0.0000000), wk =   0.0533333
        k(   22) = (   0.2000000   0.4233902   0.0000000), wk =   0.1066667
        k(   23) = (   0.2000000   0.5003702   0.0000000), wk =   0.1066667
        k(   24) = (   0.2000000   0.5773503   0.0000000), wk =   0.0533333
        k(   25) = (   0.2666667   0.4618802   0.0000000), wk =   0.0533333
        k(   26) = (   0.2666667   0.5388603   0.0000000), wk =   0.1066667
        k(   27) = (   0.3333333   0.5773503   0.0000000), wk =   0.0177778

     Dense  grid:    37227 G-vectors     FFT dimensions: (  24,  24, 192)

     Estimated max dynamical RAM per process >       1.66 MB

     Estimated total dynamical RAM >      53.06 MB
 ----2D----2D----2D----2D----2D----2D----2D----2D----2D----2D----2D----2D
  The code is running with the 2D cutoff
  Please refer to:
  Sohier, T., Calandra, M., & Mauri, F. (2017), 
  Density functional perturbation theory for gated two-dimensional heterostructu
 res:
  Theoretical developments and application to flexural phonons in graphene.
  Physical Review B, 96(7), 75448. https://doi.org/10.1103/PhysRevB.96.075448
 ----2D----2D----2D----2D----2D----2D----2D----2D----2D----2D----2D----2D

     Initial potential from superposition of free atoms

     starting charge    7.98607, renormalised to    8.00000

     negative rho (up, down):  1.234E-04 0.000E+00
     Starting wfcs are random

     total cpu time spent up to now is        0.1 secs

     Self-consistent Calculation

     iteration #  1     ecut=    50.00 Ry     beta= 0.70
     Davidson diagonalization with overlap
     ethr =  1.00E-02,  avg # of iterations = 11.6

     negative rho (up, down):  2.006E-07 0.000E+00

     total cpu time spent up to now is        0.5 secs

     total energy              =     -22.76213209 Ry
     estimated scf accuracy    <       0.15088877 Ry

     iteration #  2     ecut=    50.00 Ry     beta= 0.70
     Davidson diagonalization with overlap
     ethr =  1.89E-03,  avg # of iterations =  2.3

     total cpu time spent up to now is        0.6 secs

     total energy              =     -22.78879728 Ry
     estimated scf accuracy    <       0.00222352 Ry

     iteration #  3     ecut=    50.00 Ry     beta= 0.70
     Davidson diagonalization with overlap
     ethr =  2.78E-05,  avg # of iterations = 10.1

     total cpu time spent up to now is        0.8 secs

     total energy              =     -22.78995982 Ry
     estimated scf accuracy    <       0.00013416 Ry

     iteration #  4     ecut=    50.00 Ry     beta= 0.70
     Davidson diagonalization with overlap
     c_bands:  1 eigenvalues not converged
     ethr =  1.68E-06,  avg # of iterations =  6.6

     total cpu time spent up to now is        1.0 secs

     total energy              =     -22.79000220 Ry
     estimated scf accuracy    <       0.00000199 Ry

     iteration #  5     ecut=    50.00 Ry     beta= 0.70
     Davidson diagonalization with overlap
     ethr =  2.49E-08,  avg # of iterations =  4.0

     total cpu time spent up to now is        1.2 secs

     total energy              =     -22.79000543 Ry
     estimated scf accuracy    <       0.00000014 Ry

     iteration #  6     ecut=    50.00 Ry     beta= 0.70
     Davidson diagonalization with overlap
     ethr =  1.76E-09,  avg # of iterations =  2.1

     total cpu time spent up to now is        1.3 secs

     End of self-consistent calculation

          k = 0.0000 0.0000 0.0000 (  4663 PWs)   bands (ev):

   -23.6250 -11.7491  -7.4319  -7.4319  -0.9735  -0.2021   0.5889   0.9434

          k = 0.0000 0.0770 0.0000 (  4655 PWs)   bands (ev):

   -23.5223 -11.6259  -7.8489  -7.6436  -0.8340  -0.0607   0.7314   1.0853

          k = 0.0000 0.1540 0.0000 (  4673 PWs)   bands (ev):

   -23.2145 -11.2613  -8.9594  -8.1879  -0.4153   0.3630   1.1588   1.5101

          k = 0.0000 0.2309 0.0000 (  4663 PWs)   bands (ev):

   -22.7039 -10.6606 -10.4798  -8.8695   0.2820   1.0666   1.8706   2.2155

          k = 0.0000 0.3079 0.0000 (  4655 PWs)   bands (ev):

   -21.9949 -12.1784  -9.8409  -9.5349   1.2554   1.9791   2.3352   2.8627

          k = 0.0000 0.3849 0.0000 (  4635 PWs)   bands (ev):

   -21.0952 -13.9092 -10.0893  -8.8313   0.4571   2.4908   3.0783   3.3348

          k = 0.0000 0.4619 0.0000 (  4655 PWs)   bands (ev):

   -20.0229 -15.5723 -10.4829  -7.7209  -1.2339   2.8370   4.0398   4.8656

          k = 0.0000 0.5389 0.0000 (  4668 PWs)   bands (ev):

   -18.8660 -17.0342 -10.6845  -6.7956  -2.4675   2.7296   5.8071   6.6496

          k = 0.0667 0.1155 0.0000 (  4673 PWs)   bands (ev):

   -23.3170 -11.3824  -8.5644  -8.0735  -0.5548   0.2219   1.0162   1.3686

          k = 0.0667 0.1925 0.0000 (  4670 PWs)   bands (ev):

   -22.9077 -10.8993  -9.7933  -8.7752   0.0035   0.7860   1.5861   1.9344

          k = 0.0667 0.2694 0.0000 (  4656 PWs)   bands (ev):

   -22.2979 -11.3445 -10.1876  -9.5096   0.8395   1.6252   2.4404   2.7611

          k = 0.0667 0.3464 0.0000 (  4642 PWs)   bands (ev):

   -21.4933 -13.0288 -10.1509  -9.2689   1.2660   1.9497   2.7715   3.5527

          k = 0.0667 0.4234 0.0000 (  4649 PWs)   bands (ev):

   -20.5057 -14.7117 -10.6400  -8.1934  -0.4628   3.2642   3.4790   4.1612

          k = 0.0667 0.5004 0.0000 (  4648 PWs)   bands (ev):

   -19.3688 -16.2890 -10.9438  -7.1104  -1.9746   3.2320   4.9930   5.8127

          k = 0.0667 0.5774 0.0000 (  4658 PWs)   bands (ev):

   -18.4672 -17.3409 -11.0469  -6.5425  -2.6934   3.1769   6.7955   6.9560

          k = 0.1333 0.2309 0.0000 (  4647 PWs)   bands (ev):

   -22.3993 -10.8782 -10.3045  -9.7045   0.7009   1.4890   2.2986   2.6402

          k = 0.1333 0.3079 0.0000 (  4649 PWs)   bands (ev):

   -21.6938 -12.2496 -10.5858  -9.4906   1.6748   1.7873   2.4737   3.2951

          k = 0.1333 0.3849 0.0000 (  4629 PWs)   bands (ev):

   -20.8000 -13.8051 -11.2454  -8.4889   0.1719   2.9203   3.7223   4.5624

          k = 0.1333 0.4619 0.0000 (  4633 PWs)   bands (ev):

   -19.7368 -15.3786 -11.6814  -7.3784  -1.4021   4.3843   4.6014   5.2207

          k = 0.1333 0.5389 0.0000 (  4648 PWs)   bands (ev):

   -18.5938 -16.7949 -11.8999  -6.4312  -2.5981   4.4291   6.1959   6.8573

          k = 0.2000 0.3464 0.0000 (  4645 PWs)   bands (ev):

   -20.8989 -13.2578 -11.7193  -8.5895   0.4306   2.7837   3.5699   4.4337

          k = 0.2000 0.4234 0.0000 (  4634 PWs)   bands (ev):

   -19.9264 -14.5133 -12.5211  -7.5276  -1.0010   4.1575   4.9039   5.8503

          k = 0.2000 0.5004 0.0000 (  4621 PWs)   bands (ev):

   -18.8134 -15.8959 -12.9441  -6.4256  -2.3452   5.7617   6.2035   6.2921

          k = 0.2000 0.5774 0.0000 (  4622 PWs)   bands (ev):

   -17.9333 -16.8817 -13.0766  -5.7985  -3.0575   6.1112   6.9153   7.4682

          k = 0.2667 0.4619 0.0000 (  4637 PWs)   bands (ev):

   -18.8967 -15.2985 -13.5998  -6.4371  -2.2135   5.6395   6.0675   7.3608

          k = 0.2667 0.5389 0.0000 (  4628 PWs)   bands (ev):

   -17.7969 -16.3110 -14.1278  -5.3883  -3.3150   6.4226   7.2711   7.8648

          k = 0.3333 0.5774 0.0000 (  4635 PWs)   bands (ev):

   -16.8718 -16.8718 -14.6954  -4.3346  -4.3346   6.2416   8.3186   8.3186

     the Fermi energy is    -4.3346 ev

!    total energy              =     -22.79000546 Ry
     estimated scf accuracy    <          4.3E-09 Ry
     smearing contrib. (-TS)   =      -0.00005015 Ry
     internal energy E=F+TS    =     -22.78995531 Ry

     The total energy is F=E-TS. E is the sum of the following terms:
     one-electron contribution =    -378.48853677 Ry
     hartree contribution      =     189.84191014 Ry
     xc contribution           =      -6.96429211 Ry
     ewald contribution        =     172.82096342 Ry

     convergence has been achieved in   6 iterations

     Forces acting on atoms (cartesian axes, Ry/au):

     atom    1 type  1   force =     0.00000000    0.00000000    0.00000000
     atom    2 type  1   force =    -0.00000000   -0.00000000    0.00000000

     Total force =     0.000000     Total SCF correction =     0.000000


     Computing stress (Cartesian axis) and pressure

          total   stress  (Ry/bohr**3)                   (kbar)     P=      -28.08
  -0.00023412  -0.00000000   0.00000000          -34.44       -0.00        0.00
  -0.00000000  -0.00023412   0.00000000           -0.00      -34.44        0.00
   0.00000000   0.00000000  -0.00010436            0.00        0.00      -15.35


     Writing output data file ./work/LiC471.save/
 
     init_run     :      0.06s CPU      0.08s WALL (       1 calls)
     electrons    :      1.09s CPU      1.18s WALL (       1 calls)
     forces       :      0.01s CPU      0.01s WALL (       1 calls)
     stress       :      0.02s CPU      0.02s WALL (       1 calls)

     Called by init_run:
     wfcinit      :      0.05s CPU      0.06s WALL (       1 calls)
     potinit      :      0.00s CPU      0.01s WALL (       1 calls)
     hinit0       :      0.00s CPU      0.00s WALL (       1 calls)

     Called by electrons:
     c_bands      :      0.98s CPU      1.04s WALL (       6 calls)
     sum_band     :      0.10s CPU      0.10s WALL (       6 calls)
     v_of_rho     :      0.01s CPU      0.02s WALL (       7 calls)
     mix_rho      :      0.00s CPU      0.00s WALL (       6 calls)

     Called by c_bands:
     init_us_2    :      0.01s CPU      0.01s WALL (     405 calls)
     cegterg      :      0.96s CPU      1.02s WALL (     162 calls)

     Called by *egterg:
     cdiaghg      :      0.11s CPU      0.11s WALL (    1152 calls)
     h_psi        :      0.80s CPU      0.86s WALL (    1179 calls)
     g_psi        :      0.00s CPU      0.00s WALL (     990 calls)

     Called by h_psi:
     h_psi:calbec :      0.03s CPU      0.04s WALL (    1179 calls)
     vloc_psi     :      0.75s CPU      0.81s WALL (    1179 calls)
     add_vuspsi   :      0.01s CPU      0.01s WALL (    1179 calls)

     General routines
     calbec       :      0.04s CPU      0.04s WALL (    1314 calls)
     fft          :      0.01s CPU      0.01s WALL (      77 calls)
     ffts         :      0.00s CPU      0.00s WALL (       6 calls)
     fftw         :      0.79s CPU      0.84s WALL (   13218 calls)
 
     Parallel routines
     fft_scatt_xy :      0.06s CPU      0.06s WALL (   13301 calls)
     fft_scatt_yz :      0.41s CPU      0.44s WALL (   13301 calls)
 
     PWSCF        :      1.22s CPU      1.56s WALL

 
   This run was terminated on:  11: 1:13  22Jan2024            

=------------------------------------------------------------------------------=
   JOB DONE.
=------------------------------------------------------------------------------=
