
     Program PWSCF v.6.7MaX starts on 22Jan2024 at 11: 1:23 

     This program is part of the open-source Quantum ESPRESSO suite
     for quantum simulation of materials; please cite
         "P. Giannozzi et al., J. Phys.:Condens. Matter 21 395502 (2009);
         "P. Giannozzi et al., J. Phys.:Condens. Matter 29 465901 (2017);
          URL http://www.quantum-espresso.org", 
     in publications or presentations arising from this work. More details at
     http://www.quantum-espresso.org/quote

     Parallel version (MPI), running on    32 processors

     MPI processes distributed on     1 nodes
     R & G space division:  proc/nbgrp/npool/nimage =      32
     Waiting for input...
     Reading input from standard input
Warning: card &CELL ignored
Warning: card  CELL_DYNAMICS = 'BFGS', ignored
Warning: card  PRESS = 0.0, ignored
Warning: card  PRESS_CONV_THR = 1D-3, ignored
Warning: card  CELL_DOFREE='2DXY' ignored
Warning: card / ignored

     Current dimensions of program PWSCF are:
     Max number of different atomic species (ntypx) = 10
     Max number of k-points (npk) =  40000
     Max angular momentum in pseudopotentials (lmaxx) =  3
     Message from routine read_pp_mesh:
     mesh size missing, using the one in header

     Subspace diagonalization in iterative solution of the eigenvalue problem:
     a serial algorithm will be used

 
     Parallelization info
     --------------------
     sticks:   dense  smooth     PW     G-vecs:    dense   smooth      PW
     Min           9       9      3                 1161     1161     181
     Max          10      10      4                 1210     1210     223
     Sum         313     313     97                38067    38067    6679
 


     bravais-lattice index     =            4
     lattice parameter (alat)  =       4.7600  a.u.
     unit-cell volume          =     794.6933 (a.u.)^3
     number of atoms/cell      =            2
     number of atomic types    =            1
     number of electrons       =         8.00
     number of Kohn-Sham states=            8
     kinetic-energy cutoff     =      50.0000  Ry
     charge density cutoff     =     200.0000  Ry
     scf convergence threshold =      1.0E-08
     mixing beta               =       0.7000
     number of iterations used =            8  plain     mixing
     Exchange-correlation= PBE
                           (   1   4   3   4   0   0   0)

     celldm(1)=   4.760000  celldm(2)=   0.000000  celldm(3)=   8.508403
     celldm(4)=   0.000000  celldm(5)=   0.000000  celldm(6)=   0.000000

     crystal axes: (cart. coord. in units of alat)
               a(1) = (   1.000000   0.000000   0.000000 )  
               a(2) = (  -0.500000   0.866025   0.000000 )  
               a(3) = (   0.000000   0.000000   8.508403 )  

     reciprocal axes: (cart. coord. in units 2 pi/alat)
               b(1) = (  1.000000  0.577350  0.000000 )  
               b(2) = (  0.000000  1.154701  0.000000 )  
               b(3) = (  0.000000  0.000000  0.117531 )  


     PseudoPot. # 1 for C  read from file:
     /home/yhkim/qe-6.7/pseudo/ONCV1/1.2/C_ONCV_PBE-1.2.upf
     MD5 check sum: 1a5f83a7b1f58d24996abe00ed223ac6
     Pseudo is Norm-conserving, Zval =  4.0
     Generated using ONCVPSP code by D. R. Hamann
     Using radial grid of  602 points,  4 beta functions with: 
                l(1) =   0
                l(2) =   0
                l(3) =   1
                l(4) =   1

     atomic species   valence    mass     pseudopotential
        C              4.00    12.01070     C ( 1.00)

     24 Sym. Ops., with inversion, found



   Cartesian axes

     site n.     atom                  positions (alat units)
         1           C   tau(   1) = (  -0.0000000   0.5773503   4.2542017  )
         2           C   tau(   2) = (   0.5000000   0.2886751   4.2542017  )

     number of k points=    27  Methfessel-Paxton smearing, width (Ry)=  0.0100
                       cart. coord. in units 2pi/alat
        k(    1) = (   0.0000000   0.0000000   0.0000000), wk =   0.0088889
        k(    2) = (   0.0000000   0.0769800   0.0000000), wk =   0.0533333
        k(    3) = (   0.0000000   0.1539601   0.0000000), wk =   0.0533333
        k(    4) = (   0.0000000   0.2309401   0.0000000), wk =   0.0533333
        k(    5) = (   0.0000000   0.3079201   0.0000000), wk =   0.0533333
        k(    6) = (   0.0000000   0.3849002   0.0000000), wk =   0.0533333
        k(    7) = (   0.0000000   0.4618802   0.0000000), wk =   0.0533333
        k(    8) = (   0.0000000   0.5388603   0.0000000), wk =   0.0533333
        k(    9) = (   0.0666667   0.1154701   0.0000000), wk =   0.0533333
        k(   10) = (   0.0666667   0.1924501   0.0000000), wk =   0.1066667
        k(   11) = (   0.0666667   0.2694301   0.0000000), wk =   0.1066667
        k(   12) = (   0.0666667   0.3464102   0.0000000), wk =   0.1066667
        k(   13) = (   0.0666667   0.4233902   0.0000000), wk =   0.1066667
        k(   14) = (   0.0666667   0.5003702   0.0000000), wk =   0.1066667
        k(   15) = (   0.0666667   0.5773503   0.0000000), wk =   0.0533333
        k(   16) = (   0.1333333   0.2309401   0.0000000), wk =   0.0533333
        k(   17) = (   0.1333333   0.3079201   0.0000000), wk =   0.1066667
        k(   18) = (   0.1333333   0.3849002   0.0000000), wk =   0.1066667
        k(   19) = (   0.1333333   0.4618802   0.0000000), wk =   0.1066667
        k(   20) = (   0.1333333   0.5388603   0.0000000), wk =   0.1066667
        k(   21) = (   0.2000000   0.3464102   0.0000000), wk =   0.0533333
        k(   22) = (   0.2000000   0.4233902   0.0000000), wk =   0.1066667
        k(   23) = (   0.2000000   0.5003702   0.0000000), wk =   0.1066667
        k(   24) = (   0.2000000   0.5773503   0.0000000), wk =   0.0533333
        k(   25) = (   0.2666667   0.4618802   0.0000000), wk =   0.0533333
        k(   26) = (   0.2666667   0.5388603   0.0000000), wk =   0.1066667
        k(   27) = (   0.3333333   0.5773503   0.0000000), wk =   0.0177778

     Dense  grid:    38067 G-vectors     FFT dimensions: (  24,  24, 192)

     Estimated max dynamical RAM per process >       1.69 MB

     Estimated total dynamical RAM >      54.12 MB
 ----2D----2D----2D----2D----2D----2D----2D----2D----2D----2D----2D----2D
  The code is running with the 2D cutoff
  Please refer to:
  Sohier, T., Calandra, M., & Mauri, F. (2017), 
  Density functional perturbation theory for gated two-dimensional heterostructu
 res:
  Theoretical developments and application to flexural phonons in graphene.
  Physical Review B, 96(7), 75448. https://doi.org/10.1103/PhysRevB.96.075448
 ----2D----2D----2D----2D----2D----2D----2D----2D----2D----2D----2D----2D

     Initial potential from superposition of free atoms

     starting charge    7.98607, renormalised to    8.00000

     negative rho (up, down):  1.186E-04 0.000E+00
     Starting wfcs are random

     total cpu time spent up to now is        0.1 secs

     Self-consistent Calculation

     iteration #  1     ecut=    50.00 Ry     beta= 0.70
     Davidson diagonalization with overlap
     ethr =  1.00E-02,  avg # of iterations = 11.8

     negative rho (up, down):  3.891E-08 0.000E+00

     total cpu time spent up to now is        0.5 secs

     total energy              =     -22.76286660 Ry
     estimated scf accuracy    <       0.13791198 Ry

     iteration #  2     ecut=    50.00 Ry     beta= 0.70
     Davidson diagonalization with overlap
     ethr =  1.72E-03,  avg # of iterations =  2.2

     total cpu time spent up to now is        0.7 secs

     total energy              =     -22.78563279 Ry
     estimated scf accuracy    <       0.00212094 Ry

     iteration #  3     ecut=    50.00 Ry     beta= 0.70
     Davidson diagonalization with overlap
     ethr =  2.65E-05,  avg # of iterations =  9.1

     total cpu time spent up to now is        0.9 secs

     total energy              =     -22.78678185 Ry
     estimated scf accuracy    <       0.00012874 Ry

     iteration #  4     ecut=    50.00 Ry     beta= 0.70
     Davidson diagonalization with overlap
     c_bands:  1 eigenvalues not converged
     c_bands:  1 eigenvalues not converged
     ethr =  1.61E-06,  avg # of iterations =  6.9

     total cpu time spent up to now is        1.1 secs

     total energy              =     -22.78681938 Ry
     estimated scf accuracy    <       0.00000152 Ry

     iteration #  5     ecut=    50.00 Ry     beta= 0.70
     Davidson diagonalization with overlap
     ethr =  1.90E-08,  avg # of iterations =  4.6

     total cpu time spent up to now is        1.3 secs

     total energy              =     -22.78682207 Ry
     estimated scf accuracy    <       0.00000008 Ry

     iteration #  6     ecut=    50.00 Ry     beta= 0.70
     Davidson diagonalization with overlap
     ethr =  9.87E-10,  avg # of iterations =  2.1

     total cpu time spent up to now is        1.4 secs

     End of self-consistent calculation

          k = 0.0000 0.0000 0.0000 (  4831 PWs)   bands (ev):

   -23.4623 -11.6289  -7.5225  -7.5225  -0.9669  -0.2010   0.5920   0.9462

          k = 0.0000 0.0770 0.0000 (  4795 PWs)   bands (ev):

   -23.3613 -11.5098  -7.9372  -7.7293  -0.8301  -0.0627   0.7315   1.0848

          k = 0.0000 0.1540 0.0000 (  4787 PWs)   bands (ev):

   -23.0593 -11.1538  -9.0351  -8.2570  -0.4200   0.3519   1.1498   1.5007

          k = 0.0000 0.2309 0.0000 (  4775 PWs)   bands (ev):

   -22.5584 -10.5691 -10.5344  -8.9183   0.2628   1.0401   1.8468   2.1905

          k = 0.0000 0.3079 0.0000 (  4767 PWs)   bands (ev):

   -21.8630 -12.2057  -9.7706  -9.5648   1.2159   1.8550   2.1381   2.8105

          k = 0.0000 0.3849 0.0000 (  4735 PWs)   bands (ev):

   -20.9815 -13.9029 -10.1027  -8.7896   0.2455   2.4115   2.7139   3.2574

          k = 0.0000 0.4619 0.0000 (  4730 PWs)   bands (ev):

   -19.9332 -15.5317 -10.4836  -7.7111  -1.3864   2.4545   3.9382   4.7546

          k = 0.0000 0.5389 0.0000 (  4748 PWs)   bands (ev):

   -18.8159 -16.9491 -10.6802  -6.8167  -2.5781   2.3406   5.6697   6.4963

          k = 0.0667 0.1155 0.0000 (  4783 PWs)   bands (ev):

   -23.1599 -11.2716  -8.6461  -8.1452  -0.5567   0.2139   1.0105   1.3621

          k = 0.0667 0.1925 0.0000 (  4772 PWs)   bands (ev):

   -22.7584 -10.8013  -9.8596  -8.8259  -0.0099   0.7657   1.5683   1.9158

          k = 0.0667 0.2694 0.0000 (  4770 PWs)   bands (ev):

   -22.1602 -11.3874 -10.1085  -9.5402   0.8087   1.5857   2.4043   2.6564

          k = 0.0667 0.3464 0.0000 (  4749 PWs)   bands (ev):

   -21.3715 -13.0412 -10.1647  -9.2149   1.0249   1.8954   2.7052   3.2688

          k = 0.0667 0.4234 0.0000 (  4725 PWs)   bands (ev):

   -20.4043 -14.6910 -10.6404  -8.1688  -0.6451   2.9835   3.2877   4.0659

          k = 0.0667 0.5004 0.0000 (  4738 PWs)   bands (ev):

   -19.2966 -16.2313 -10.9370  -7.1196  -2.1068   2.8390   4.8726   5.6791

          k = 0.0667 0.5774 0.0000 (  4736 PWs)   bands (ev):

   -18.4427 -17.2329 -11.0370  -6.5712  -2.7978   2.7812   6.6326   6.7958

          k = 0.1333 0.2309 0.0000 (  4765 PWs)   bands (ev):

   -22.2596 -10.9373 -10.2216  -9.7268   0.6730   1.4535   2.2659   2.6078

          k = 0.1333 0.3079 0.0000 (  4738 PWs)   bands (ev):

   -21.5678 -12.2841 -10.5858  -9.4298   1.5241   1.6265   2.4151   3.2414

          k = 0.1333 0.3849 0.0000 (  4736 PWs)   bands (ev):

   -20.6919 -13.8101 -11.2324  -8.4562  -0.0376   2.8456   3.6367   4.3422

          k = 0.1333 0.4619 0.0000 (  4724 PWs)   bands (ev):

   -19.6527 -15.3488 -11.6607  -7.3771  -1.5588   4.1055   4.3628   5.1001

          k = 0.1333 0.5389 0.0000 (  4734 PWs)   bands (ev):

   -18.5478 -16.7210 -11.8751  -6.4612  -2.7146   4.0156   6.0487   6.6909

          k = 0.2000 0.3464 0.0000 (  4733 PWs)   bands (ev):

   -20.7886 -13.2873 -11.6851  -8.5533   0.2074   2.7120   3.4882   4.3559

          k = 0.2000 0.4234 0.0000 (  4732 PWs)   bands (ev):

   -19.8368 -14.5196 -12.4711  -7.5221  -1.1792   4.0562   4.7905   5.7354

          k = 0.2000 0.5004 0.0000 (  4728 PWs)   bands (ev):

   -18.7518 -15.8648 -12.8914  -6.4524  -2.4806   5.5916   5.7966   6.1408

          k = 0.2000 0.5774 0.0000 (  4728 PWs)   bands (ev):

   -17.9142 -16.8038 -13.0229  -5.8456  -3.1686   5.6700   6.7458   7.2772

          k = 0.2667 0.4619 0.0000 (  4729 PWs)   bands (ev):

   -18.8309 -15.3061 -13.5102  -6.4619  -2.3580   5.5043   5.9237   7.2186

          k = 0.2667 0.5389 0.0000 (  4735 PWs)   bands (ev):

   -17.7643 -16.2908 -14.0266  -5.4462  -3.4277   6.2778   7.0677   7.4324

          k = 0.3333 0.5774 0.0000 (  4740 PWs)   bands (ev):

   -16.8635 -16.8635 -14.5557  -4.4215  -4.4215   6.1085   7.9899   7.9899

     the Fermi energy is    -4.4215 ev

!    total energy              =     -22.78682209 Ry
     estimated scf accuracy    <          1.5E-09 Ry
     smearing contrib. (-TS)   =      -0.00005015 Ry
     internal energy E=F+TS    =     -22.78677194 Ry

     The total energy is F=E-TS. E is the sum of the following terms:
     one-electron contribution =    -370.49506344 Ry
     hartree contribution      =     185.82542127 Ry
     xc contribution           =      -6.92002625 Ry
     ewald contribution        =     168.80289647 Ry

     convergence has been achieved in   6 iterations

     Forces acting on atoms (cartesian axes, Ry/au):

     atom    1 type  1   force =    -0.00000000   -0.00000000    0.00000000
     atom    2 type  1   force =     0.00000000    0.00000000    0.00000000

     Total force =     0.000000     Total SCF correction =     0.000000


     Computing stress (Cartesian axis) and pressure

          total   stress  (Ry/bohr**3)                   (kbar)     P=      -39.28
  -0.00034995   0.00000000   0.00000000          -51.48        0.00        0.00
   0.00000000  -0.00034995  -0.00000000            0.00      -51.48       -0.00
   0.00000000  -0.00000000  -0.00010119            0.00       -0.00      -14.89


     Writing output data file ./work/LiC476.save/
 
     init_run     :      0.07s CPU      0.09s WALL (       1 calls)
     electrons    :      1.23s CPU      1.36s WALL (       1 calls)
     forces       :      0.01s CPU      0.01s WALL (       1 calls)
     stress       :      0.02s CPU      0.02s WALL (       1 calls)

     Called by init_run:
     wfcinit      :      0.06s CPU      0.07s WALL (       1 calls)
     potinit      :      0.00s CPU      0.01s WALL (       1 calls)
     hinit0       :      0.00s CPU      0.00s WALL (       1 calls)

     Called by electrons:
     c_bands      :      1.11s CPU      1.19s WALL (       6 calls)
     sum_band     :      0.11s CPU      0.12s WALL (       6 calls)
     v_of_rho     :      0.01s CPU      0.02s WALL (       7 calls)
     mix_rho      :      0.00s CPU      0.00s WALL (       6 calls)

     Called by c_bands:
     init_us_2    :      0.01s CPU      0.01s WALL (     405 calls)
     cegterg      :      1.09s CPU      1.17s WALL (     162 calls)

     Called by *egterg:
     cdiaghg      :      0.11s CPU      0.11s WALL (    1154 calls)
     h_psi        :      0.94s CPU      1.02s WALL (    1181 calls)
     g_psi        :      0.00s CPU      0.00s WALL (     992 calls)

     Called by h_psi:
     h_psi:calbec :      0.04s CPU      0.04s WALL (    1181 calls)
     vloc_psi     :      0.89s CPU      0.95s WALL (    1181 calls)
     add_vuspsi   :      0.01s CPU      0.01s WALL (    1181 calls)

     General routines
     calbec       :      0.04s CPU      0.05s WALL (    1316 calls)
     fft          :      0.01s CPU      0.01s WALL (      77 calls)
     ffts         :      0.00s CPU      0.00s WALL (       6 calls)
     fftw         :      0.94s CPU      1.00s WALL (   13222 calls)
 
     Parallel routines
     fft_scatt_xy :      0.06s CPU      0.07s WALL (   13305 calls)
     fft_scatt_yz :      0.55s CPU      0.59s WALL (   13305 calls)
 
     PWSCF        :      1.39s CPU      1.75s WALL

 
   This run was terminated on:  11: 1:25  22Jan2024            

=------------------------------------------------------------------------------=
   JOB DONE.
=------------------------------------------------------------------------------=
