
     Program PWSCF v.6.7MaX starts on 22Jan2024 at 11: 0:14 

     This program is part of the open-source Quantum ESPRESSO suite
     for quantum simulation of materials; please cite
         "P. Giannozzi et al., J. Phys.:Condens. Matter 21 395502 (2009);
         "P. Giannozzi et al., J. Phys.:Condens. Matter 29 465901 (2017);
          URL http://www.quantum-espresso.org", 
     in publications or presentations arising from this work. More details at
     http://www.quantum-espresso.org/quote

     Parallel version (MPI), running on    32 processors

     MPI processes distributed on     1 nodes
     R & G space division:  proc/nbgrp/npool/nimage =      32
     Waiting for input...
     Reading input from standard input
Warning: card &CELL ignored
Warning: card  CELL_DYNAMICS = 'BFGS', ignored
Warning: card  PRESS = 0.0, ignored
Warning: card  PRESS_CONV_THR = 1D-3, ignored
Warning: card  CELL_DOFREE='2DXY' ignored
Warning: card / ignored

     Current dimensions of program PWSCF are:
     Max number of different atomic species (ntypx) = 10
     Max number of k-points (npk) =  40000
     Max angular momentum in pseudopotentials (lmaxx) =  3
     Message from routine read_pp_mesh:
     mesh size missing, using the one in header

     Subspace diagonalization in iterative solution of the eigenvalue problem:
     a serial algorithm will be used

 
     Parallelization info
     --------------------
     sticks:   dense  smooth     PW     G-vecs:    dense   smooth      PW
     Min           8       8      2                 1014     1014     164
     Max           9       9      3                 1041     1041     207
     Sum         265     265     85                32715    32715    6019
 


     bravais-lattice index     =            4
     lattice parameter (alat)  =       4.4300  a.u.
     unit-cell volume          =     688.3243 (a.u.)^3
     number of atoms/cell      =            2
     number of atomic types    =            1
     number of electrons       =         8.00
     number of Kohn-Sham states=            8
     kinetic-energy cutoff     =      50.0000  Ry
     charge density cutoff     =     200.0000  Ry
     scf convergence threshold =      1.0E-08
     mixing beta               =       0.7000
     number of iterations used =            8  plain     mixing
     Exchange-correlation= PBE
                           (   1   4   3   4   0   0   0)

     celldm(1)=   4.430000  celldm(2)=   0.000000  celldm(3)=   9.142212
     celldm(4)=   0.000000  celldm(5)=   0.000000  celldm(6)=   0.000000

     crystal axes: (cart. coord. in units of alat)
               a(1) = (   1.000000   0.000000   0.000000 )  
               a(2) = (  -0.500000   0.866025   0.000000 )  
               a(3) = (   0.000000   0.000000   9.142212 )  

     reciprocal axes: (cart. coord. in units 2 pi/alat)
               b(1) = (  1.000000  0.577350  0.000000 )  
               b(2) = (  0.000000  1.154701  0.000000 )  
               b(3) = (  0.000000  0.000000  0.109383 )  


     PseudoPot. # 1 for C  read from file:
     /home/yhkim/qe-6.7/pseudo/ONCV1/1.2/C_ONCV_PBE-1.2.upf
     MD5 check sum: 1a5f83a7b1f58d24996abe00ed223ac6
     Pseudo is Norm-conserving, Zval =  4.0
     Generated using ONCVPSP code by D. R. Hamann
     Using radial grid of  602 points,  4 beta functions with: 
                l(1) =   0
                l(2) =   0
                l(3) =   1
                l(4) =   1

     atomic species   valence    mass     pseudopotential
        C              4.00    12.01070     C ( 1.00)

     24 Sym. Ops., with inversion, found



   Cartesian axes

     site n.     atom                  positions (alat units)
         1           C   tau(   1) = (  -0.0000000   0.5773503   4.5711061  )
         2           C   tau(   2) = (   0.5000000   0.2886751   4.5711061  )

     number of k points=    27  Methfessel-Paxton smearing, width (Ry)=  0.0100
                       cart. coord. in units 2pi/alat
        k(    1) = (   0.0000000   0.0000000   0.0000000), wk =   0.0088889
        k(    2) = (   0.0000000   0.0769800   0.0000000), wk =   0.0533333
        k(    3) = (   0.0000000   0.1539601   0.0000000), wk =   0.0533333
        k(    4) = (   0.0000000   0.2309401   0.0000000), wk =   0.0533333
        k(    5) = (   0.0000000   0.3079201   0.0000000), wk =   0.0533333
        k(    6) = (   0.0000000   0.3849002   0.0000000), wk =   0.0533333
        k(    7) = (   0.0000000   0.4618802   0.0000000), wk =   0.0533333
        k(    8) = (   0.0000000   0.5388603   0.0000000), wk =   0.0533333
        k(    9) = (   0.0666667   0.1154701   0.0000000), wk =   0.0533333
        k(   10) = (   0.0666667   0.1924501   0.0000000), wk =   0.1066667
        k(   11) = (   0.0666667   0.2694301   0.0000000), wk =   0.1066667
        k(   12) = (   0.0666667   0.3464102   0.0000000), wk =   0.1066667
        k(   13) = (   0.0666667   0.4233902   0.0000000), wk =   0.1066667
        k(   14) = (   0.0666667   0.5003702   0.0000000), wk =   0.1066667
        k(   15) = (   0.0666667   0.5773503   0.0000000), wk =   0.0533333
        k(   16) = (   0.1333333   0.2309401   0.0000000), wk =   0.0533333
        k(   17) = (   0.1333333   0.3079201   0.0000000), wk =   0.1066667
        k(   18) = (   0.1333333   0.3849002   0.0000000), wk =   0.1066667
        k(   19) = (   0.1333333   0.4618802   0.0000000), wk =   0.1066667
        k(   20) = (   0.1333333   0.5388603   0.0000000), wk =   0.1066667
        k(   21) = (   0.2000000   0.3464102   0.0000000), wk =   0.0533333
        k(   22) = (   0.2000000   0.4233902   0.0000000), wk =   0.1066667
        k(   23) = (   0.2000000   0.5003702   0.0000000), wk =   0.1066667
        k(   24) = (   0.2000000   0.5773503   0.0000000), wk =   0.0533333
        k(   25) = (   0.2666667   0.4618802   0.0000000), wk =   0.0533333
        k(   26) = (   0.2666667   0.5388603   0.0000000), wk =   0.1066667
        k(   27) = (   0.3333333   0.5773503   0.0000000), wk =   0.0177778

     Dense  grid:    32715 G-vectors     FFT dimensions: (  20,  20, 192)

     Estimated max dynamical RAM per process >       1.46 MB

     Estimated total dynamical RAM >      46.62 MB
 ----2D----2D----2D----2D----2D----2D----2D----2D----2D----2D----2D----2D
  The code is running with the 2D cutoff
  Please refer to:
  Sohier, T., Calandra, M., & Mauri, F. (2017), 
  Density functional perturbation theory for gated two-dimensional heterostructu
 res:
  Theoretical developments and application to flexural phonons in graphene.
  Physical Review B, 96(7), 75448. https://doi.org/10.1103/PhysRevB.96.075448
 ----2D----2D----2D----2D----2D----2D----2D----2D----2D----2D----2D----2D

     Initial potential from superposition of free atoms

     starting charge    7.98607, renormalised to    8.00000

     negative rho (up, down):  1.074E-04 0.000E+00
     Starting wfcs are random

     total cpu time spent up to now is        0.1 secs

     Self-consistent Calculation

     iteration #  1     ecut=    50.00 Ry     beta= 0.70
     Davidson diagonalization with overlap
     ethr =  1.00E-02,  avg # of iterations = 11.5

     negative rho (up, down):  5.726E-08 0.000E+00

     total cpu time spent up to now is        0.6 secs

     total energy              =     -22.72100881 Ry
     estimated scf accuracy    <       0.25374096 Ry

     iteration #  2     ecut=    50.00 Ry     beta= 0.70
     Davidson diagonalization with overlap
     ethr =  3.17E-03,  avg # of iterations =  2.0

     total cpu time spent up to now is        0.7 secs

     total energy              =     -22.75910658 Ry
     estimated scf accuracy    <       0.00232473 Ry

     iteration #  3     ecut=    50.00 Ry     beta= 0.70
     Davidson diagonalization with overlap
     c_bands:  2 eigenvalues not converged
     c_bands:  1 eigenvalues not converged
     ethr =  2.91E-05,  avg # of iterations = 11.5

     total cpu time spent up to now is        1.0 secs

     total energy              =     -22.76051573 Ry
     estimated scf accuracy    <       0.00015472 Ry

     iteration #  4     ecut=    50.00 Ry     beta= 0.70
     Davidson diagonalization with overlap
     ethr =  1.93E-06,  avg # of iterations =  6.2

     total cpu time spent up to now is        1.2 secs

     total energy              =     -22.76055468 Ry
     estimated scf accuracy    <       0.00000167 Ry

     iteration #  5     ecut=    50.00 Ry     beta= 0.70
     Davidson diagonalization with overlap
     ethr =  2.09E-08,  avg # of iterations =  3.9

     total cpu time spent up to now is        1.3 secs

     total energy              =     -22.76055766 Ry
     estimated scf accuracy    <       0.00000015 Ry

     iteration #  6     ecut=    50.00 Ry     beta= 0.70
     Davidson diagonalization with overlap
     ethr =  1.88E-09,  avg # of iterations =  2.1

     total cpu time spent up to now is        1.5 secs

     End of self-consistent calculation

          k = 0.0000 0.0000 0.0000 (  4027 PWs)   bands (ev):

   -24.5937 -12.4978  -6.7850  -1.0094  -0.2072   0.5728   0.9284   2.2543

          k = 0.0000 0.0770 0.0000 (  4043 PWs)   bands (ev):

   -24.4794 -12.3568  -7.2428  -7.0454  -0.8521  -0.0469   0.7338   1.0891

          k = 0.0000 0.1540 0.0000 (  4061 PWs)   bands (ev):

   -24.1371 -11.9331  -8.4569  -7.7050  -0.3798   0.4336   1.2168   1.5708

          k = 0.0000 0.2309 0.0000 (  4067 PWs)   bands (ev):

   -23.5689 -11.2344 -10.1266  -8.5217   0.4074   1.2326   2.0221   2.3719

          k = 0.0000 0.3079 0.0000 (  4063 PWs)   bands (ev):

   -22.7785 -12.0013 -10.2778  -9.3089   1.5077   2.3354   3.1487   3.4586

          k = 0.0000 0.3849 0.0000 (  4086 PWs)   bands (ev):

   -21.7737 -13.9202  -9.9607  -9.0966   1.7412   2.9160   3.8220   4.5908

          k = 0.0000 0.4619 0.0000 (  4100 PWs)   bands (ev):

   -20.5633 -15.7802 -10.4187  -7.7841  -0.3000   4.6015   5.2817   5.5568

          k = 0.0000 0.5389 0.0000 (  4112 PWs)   bands (ev):

   -19.1792 -17.5001 -10.6546  -6.6675  -1.8047   5.1411   6.6756   7.5998

          k = 0.0667 0.1155 0.0000 (  4053 PWs)   bands (ev):

   -24.2510 -12.0728  -8.0165  -7.5705  -0.5372   0.2736   1.0559   1.4104

          k = 0.0667 0.1925 0.0000 (  4078 PWs)   bands (ev):

   -23.7959 -11.5126  -9.3558  -8.4106   0.0931   0.9136   1.7002   2.0519

          k = 0.0667 0.2694 0.0000 (  4076 PWs)   bands (ev):

   -23.1166 -11.0665 -10.6836  -9.2709   1.0377   1.8691   2.6665   3.0099

          k = 0.0667 0.3464 0.0000 (  4094 PWs)   bands (ev):

   -22.2194 -12.9334 -10.0187  -9.6101   2.2935   2.6976   3.2294   3.9536

          k = 0.0667 0.4234 0.0000 (  4116 PWs)   bands (ev):

   -21.1120 -14.8082 -10.5855  -8.3458   0.6538   3.8534   4.7564   5.5394

          k = 0.0667 0.5004 0.0000 (  4120 PWs)   bands (ev):

   -19.8099 -16.5964 -10.9357  -7.0557  -1.1822   5.5534   5.8638   6.6431

          k = 0.0667 0.5774 0.0000 (  4113 PWs)   bands (ev):

   -18.5560 -18.0154 -11.0543  -6.3625  -2.0652   5.6322   7.8136   7.9600

          k = 0.1333 0.2309 0.0000 (  4099 PWs)   bands (ev):

   -23.2297 -10.8205 -10.5094  -9.5223   0.8814   1.7116   2.5060   2.8527

          k = 0.1333 0.3079 0.0000 (  4098 PWs)   bands (ev):

   -22.4430 -12.0134 -10.5352  -9.8708   1.9827   2.8162   3.4498   3.6342

          k = 0.1333 0.3849 0.0000 (  4125 PWs)   bands (ev):

   -21.4441 -13.7605 -11.2689  -8.6977   1.4714   3.3924   4.2570   5.0817

          k = 0.1333 0.4619 0.0000 (  4125 PWs)   bands (ev):

   -20.2436 -15.5366 -11.7511  -7.3847  -0.4338   5.1013   5.9720   6.8314

          k = 0.1333 0.5389 0.0000 (  4123 PWs)   bands (ev):

   -18.8773 -17.2099 -11.9929  -6.2436  -1.8930   6.9193   7.1741   7.8908

          k = 0.2000 0.3464 0.0000 (  4107 PWs)   bands (ev):

   -21.5550 -13.0464 -11.8864  -8.8162   1.8228   3.2378   4.0803   4.9220

          k = 0.2000 0.4234 0.0000 (  4139 PWs)   bands (ev):

   -20.4630 -14.4639 -12.7679  -7.5673   0.1094   4.7949   5.6111   6.5300

          k = 0.2000 0.5004 0.0000 (  4149 PWs)   bands (ev):

   -19.1872 -16.0798 -13.1991  -6.2574  -1.5078   6.6368   7.2405   8.4493

          k = 0.2000 0.5774 0.0000 (  4151 PWs)   bands (ev):

   -17.9957 -17.4021 -13.3322  -5.4979  -2.3755   7.9906   8.6288   8.7062

          k = 0.2667 0.4619 0.0000 (  4167 PWs)   bands (ev):

   -19.2941 -15.2146 -14.1049  -6.2790  -1.3107   6.4832   6.9711   8.2664

          k = 0.2667 0.5389 0.0000 (  4167 PWs)   bands (ev):

   -17.9888 -16.4405 -14.6705  -5.0318  -2.6138   7.3357   8.4017   9.8786

          k = 0.3333 0.5774 0.0000 (  4179 PWs)   bands (ev):

   -16.8783 -16.8783 -15.5668  -3.7929  -3.7929   7.0783  10.0325  10.0326

     the Fermi energy is    -3.7506 ev

!    total energy              =     -22.76055769 Ry
     estimated scf accuracy    <          7.9E-09 Ry
     smearing contrib. (-TS)   =      -0.00003668 Ry
     internal energy E=F+TS    =     -22.76052102 Ry

     The total energy is F=E-TS. E is the sum of the following terms:
     one-electron contribution =    -428.47390968 Ry
     hartree contribution      =     214.96108420 Ry
     xc contribution           =      -7.23332027 Ry
     ewald contribution        =     197.98562473 Ry

     convergence has been achieved in   6 iterations

     Forces acting on atoms (cartesian axes, Ry/au):

     atom    1 type  1   force =     0.00000000    0.00000000    0.00000000
     atom    2 type  1   force =     0.00000000    0.00000000    0.00000000

     Total force =     0.000000     Total SCF correction =     0.000000


     Computing stress (Cartesian axis) and pressure

          total   stress  (Ry/bohr**3)                   (kbar)     P=       60.97
   0.00068291   0.00000000   0.00000000          100.46        0.00        0.00
   0.00000000   0.00068291   0.00000000            0.00      100.46        0.00
   0.00000000   0.00000000  -0.00012248            0.00        0.00      -18.02


     Writing output data file ./work/LiC443.save/
 
     init_run     :      0.10s CPU      0.11s WALL (       1 calls)
     electrons    :      1.23s CPU      1.35s WALL (       1 calls)
     forces       :      0.01s CPU      0.01s WALL (       1 calls)
     stress       :      0.02s CPU      0.02s WALL (       1 calls)

     Called by init_run:
     wfcinit      :      0.06s CPU      0.07s WALL (       1 calls)
     potinit      :      0.03s CPU      0.03s WALL (       1 calls)
     hinit0       :      0.00s CPU      0.01s WALL (       1 calls)

     Called by electrons:
     c_bands      :      1.10s CPU      1.20s WALL (       6 calls)
     sum_band     :      0.11s CPU      0.12s WALL (       6 calls)
     v_of_rho     :      0.01s CPU      0.01s WALL (       7 calls)
     mix_rho      :      0.00s CPU      0.00s WALL (       6 calls)

     Called by c_bands:
     init_us_2    :      0.01s CPU      0.01s WALL (     405 calls)
     cegterg      :      1.09s CPU      1.18s WALL (     162 calls)

     Called by *egterg:
     cdiaghg      :      0.11s CPU      0.11s WALL (    1166 calls)
     h_psi        :      0.94s CPU      1.03s WALL (    1193 calls)
     g_psi        :      0.00s CPU      0.00s WALL (    1004 calls)

     Called by h_psi:
     h_psi:calbec :      0.03s CPU      0.03s WALL (    1193 calls)
     vloc_psi     :      0.90s CPU      0.98s WALL (    1193 calls)
     add_vuspsi   :      0.01s CPU      0.01s WALL (    1193 calls)

     General routines
     calbec       :      0.04s CPU      0.04s WALL (    1328 calls)
     fft          :      0.01s CPU      0.02s WALL (      77 calls)
     ffts         :      0.00s CPU      0.00s WALL (       6 calls)
     fftw         :      0.95s CPU      1.04s WALL (   13160 calls)
 
     Parallel routines
     fft_scatt_xy :      0.05s CPU      0.05s WALL (   13243 calls)
     fft_scatt_yz :      0.39s CPU      0.43s WALL (   13243 calls)
 
     PWSCF        :      1.40s CPU      1.74s WALL

 
   This run was terminated on:  11: 0:16  22Jan2024            

=------------------------------------------------------------------------------=
   JOB DONE.
=------------------------------------------------------------------------------=
