
     Program PWSCF v.6.7MaX starts on 22Jan2024 at 11: 1:28 

     This program is part of the open-source Quantum ESPRESSO suite
     for quantum simulation of materials; please cite
         "P. Giannozzi et al., J. Phys.:Condens. Matter 21 395502 (2009);
         "P. Giannozzi et al., J. Phys.:Condens. Matter 29 465901 (2017);
          URL http://www.quantum-espresso.org", 
     in publications or presentations arising from this work. More details at
     http://www.quantum-espresso.org/quote

     Parallel version (MPI), running on    32 processors

     MPI processes distributed on     1 nodes
     R & G space division:  proc/nbgrp/npool/nimage =      32
     Waiting for input...
     Reading input from standard input
Warning: card &CELL ignored
Warning: card  CELL_DYNAMICS = 'BFGS', ignored
Warning: card  PRESS = 0.0, ignored
Warning: card  PRESS_CONV_THR = 1D-3, ignored
Warning: card  CELL_DOFREE='2DXY' ignored
Warning: card / ignored

     Current dimensions of program PWSCF are:
     Max number of different atomic species (ntypx) = 10
     Max number of k-points (npk) =  40000
     Max angular momentum in pseudopotentials (lmaxx) =  3
     Message from routine read_pp_mesh:
     mesh size missing, using the one in header

     Subspace diagonalization in iterative solution of the eigenvalue problem:
     a serial algorithm will be used

 
     Parallelization info
     --------------------
     sticks:   dense  smooth     PW     G-vecs:    dense   smooth      PW
     Min           9       9      3                 1169     1169     185
     Max          10      10      4                 1220     1220     223
     Sum         313     313     97                38391    38391    6727
 


     bravais-lattice index     =            4
     lattice parameter (alat)  =       4.7800  a.u.
     unit-cell volume          =     801.3854 (a.u.)^3
     number of atoms/cell      =            2
     number of atomic types    =            1
     number of electrons       =         8.00
     number of Kohn-Sham states=            8
     kinetic-energy cutoff     =      50.0000  Ry
     charge density cutoff     =     200.0000  Ry
     scf convergence threshold =      1.0E-08
     mixing beta               =       0.7000
     number of iterations used =            8  plain     mixing
     Exchange-correlation= PBE
                           (   1   4   3   4   0   0   0)

     celldm(1)=   4.780000  celldm(2)=   0.000000  celldm(3)=   8.472803
     celldm(4)=   0.000000  celldm(5)=   0.000000  celldm(6)=   0.000000

     crystal axes: (cart. coord. in units of alat)
               a(1) = (   1.000000   0.000000   0.000000 )  
               a(2) = (  -0.500000   0.866025   0.000000 )  
               a(3) = (   0.000000   0.000000   8.472803 )  

     reciprocal axes: (cart. coord. in units 2 pi/alat)
               b(1) = (  1.000000  0.577350  0.000000 )  
               b(2) = (  0.000000  1.154701  0.000000 )  
               b(3) = (  0.000000  0.000000  0.118025 )  


     PseudoPot. # 1 for C  read from file:
     /home/yhkim/qe-6.7/pseudo/ONCV1/1.2/C_ONCV_PBE-1.2.upf
     MD5 check sum: 1a5f83a7b1f58d24996abe00ed223ac6
     Pseudo is Norm-conserving, Zval =  4.0
     Generated using ONCVPSP code by D. R. Hamann
     Using radial grid of  602 points,  4 beta functions with: 
                l(1) =   0
                l(2) =   0
                l(3) =   1
                l(4) =   1

     atomic species   valence    mass     pseudopotential
        C              4.00    12.01070     C ( 1.00)

     24 Sym. Ops., with inversion, found



   Cartesian axes

     site n.     atom                  positions (alat units)
         1           C   tau(   1) = (  -0.0000000   0.5773503   4.2364017  )
         2           C   tau(   2) = (   0.5000000   0.2886751   4.2364017  )

     number of k points=    27  Methfessel-Paxton smearing, width (Ry)=  0.0100
                       cart. coord. in units 2pi/alat
        k(    1) = (   0.0000000   0.0000000   0.0000000), wk =   0.0088889
        k(    2) = (   0.0000000   0.0769800   0.0000000), wk =   0.0533333
        k(    3) = (   0.0000000   0.1539601   0.0000000), wk =   0.0533333
        k(    4) = (   0.0000000   0.2309401   0.0000000), wk =   0.0533333
        k(    5) = (   0.0000000   0.3079201   0.0000000), wk =   0.0533333
        k(    6) = (   0.0000000   0.3849002   0.0000000), wk =   0.0533333
        k(    7) = (   0.0000000   0.4618802   0.0000000), wk =   0.0533333
        k(    8) = (   0.0000000   0.5388603   0.0000000), wk =   0.0533333
        k(    9) = (   0.0666667   0.1154701   0.0000000), wk =   0.0533333
        k(   10) = (   0.0666667   0.1924501   0.0000000), wk =   0.1066667
        k(   11) = (   0.0666667   0.2694301   0.0000000), wk =   0.1066667
        k(   12) = (   0.0666667   0.3464102   0.0000000), wk =   0.1066667
        k(   13) = (   0.0666667   0.4233902   0.0000000), wk =   0.1066667
        k(   14) = (   0.0666667   0.5003702   0.0000000), wk =   0.1066667
        k(   15) = (   0.0666667   0.5773503   0.0000000), wk =   0.0533333
        k(   16) = (   0.1333333   0.2309401   0.0000000), wk =   0.0533333
        k(   17) = (   0.1333333   0.3079201   0.0000000), wk =   0.1066667
        k(   18) = (   0.1333333   0.3849002   0.0000000), wk =   0.1066667
        k(   19) = (   0.1333333   0.4618802   0.0000000), wk =   0.1066667
        k(   20) = (   0.1333333   0.5388603   0.0000000), wk =   0.1066667
        k(   21) = (   0.2000000   0.3464102   0.0000000), wk =   0.0533333
        k(   22) = (   0.2000000   0.4233902   0.0000000), wk =   0.1066667
        k(   23) = (   0.2000000   0.5003702   0.0000000), wk =   0.1066667
        k(   24) = (   0.2000000   0.5773503   0.0000000), wk =   0.0533333
        k(   25) = (   0.2666667   0.4618802   0.0000000), wk =   0.0533333
        k(   26) = (   0.2666667   0.5388603   0.0000000), wk =   0.1066667
        k(   27) = (   0.3333333   0.5773503   0.0000000), wk =   0.0177778

     Dense  grid:    38391 G-vectors     FFT dimensions: (  24,  24, 192)

     Estimated max dynamical RAM per process >       1.70 MB

     Estimated total dynamical RAM >      54.36 MB
 ----2D----2D----2D----2D----2D----2D----2D----2D----2D----2D----2D----2D
  The code is running with the 2D cutoff
  Please refer to:
  Sohier, T., Calandra, M., & Mauri, F. (2017), 
  Density functional perturbation theory for gated two-dimensional heterostructu
 res:
  Theoretical developments and application to flexural phonons in graphene.
  Physical Review B, 96(7), 75448. https://doi.org/10.1103/PhysRevB.96.075448
 ----2D----2D----2D----2D----2D----2D----2D----2D----2D----2D----2D----2D

     Initial potential from superposition of free atoms

     starting charge    7.98607, renormalised to    8.00000

     negative rho (up, down):  1.181E-04 0.000E+00
     Starting wfcs are random

     total cpu time spent up to now is        0.1 secs

     Self-consistent Calculation

     iteration #  1     ecut=    50.00 Ry     beta= 0.70
     Davidson diagonalization with overlap
     ethr =  1.00E-02,  avg # of iterations = 11.6

     negative rho (up, down):  2.032E-07 0.000E+00

     total cpu time spent up to now is        0.5 secs

     total energy              =     -22.76130347 Ry
     estimated scf accuracy    <       0.13245352 Ry

     iteration #  2     ecut=    50.00 Ry     beta= 0.70
     Davidson diagonalization with overlap
     ethr =  1.66E-03,  avg # of iterations =  2.3

     total cpu time spent up to now is        0.7 secs

     total energy              =     -22.78356611 Ry
     estimated scf accuracy    <       0.00211780 Ry

     iteration #  3     ecut=    50.00 Ry     beta= 0.70
     Davidson diagonalization with overlap
     c_bands:  1 eigenvalues not converged
     ethr =  2.65E-05,  avg # of iterations =  9.7

     total cpu time spent up to now is        0.9 secs

     total energy              =     -22.78492465 Ry
     estimated scf accuracy    <       0.00012753 Ry

     iteration #  4     ecut=    50.00 Ry     beta= 0.70
     Davidson diagonalization with overlap
     c_bands:  1 eigenvalues not converged
     c_bands:  1 eigenvalues not converged
     c_bands:  1 eigenvalues not converged
     c_bands:  1 eigenvalues not converged
     ethr =  1.59E-06,  avg # of iterations =  7.9

     total cpu time spent up to now is        1.1 secs

     total energy              =     -22.78496476 Ry
     estimated scf accuracy    <       0.00000182 Ry

     iteration #  5     ecut=    50.00 Ry     beta= 0.70
     Davidson diagonalization with overlap
     ethr =  2.28E-08,  avg # of iterations =  4.2

     total cpu time spent up to now is        1.3 secs

     total energy              =     -22.78496744 Ry
     estimated scf accuracy    <       0.00000007 Ry

     iteration #  6     ecut=    50.00 Ry     beta= 0.70
     Davidson diagonalization with overlap
     ethr =  8.50E-10,  avg # of iterations =  2.3

     total cpu time spent up to now is        1.4 secs

     End of self-consistent calculation

          k = 0.0000 0.0000 0.0000 (  4879 PWs)   bands (ev):

   -23.3978 -11.5816  -7.5585  -7.5585  -0.9642  -0.2006   0.5931   0.9471

          k = 0.0000 0.0770 0.0000 (  4863 PWs)   bands (ev):

   -23.2977 -11.4642  -7.9713  -7.7621  -0.8286  -0.0635   0.7314   1.0846

          k = 0.0000 0.1540 0.0000 (  4821 PWs)   bands (ev):

   -22.9979 -11.1116  -9.0632  -8.2826  -0.4218   0.3476   1.1463   1.4968

          k = 0.0000 0.2309 0.0000 (  4819 PWs)   bands (ev):

   -22.5008 -10.5545 -10.5331  -8.9362   0.2554   1.0297   1.8375   2.1807

          k = 0.0000 0.3079 0.0000 (  4793 PWs)   bands (ev):

   -21.8108 -12.2150  -9.7428  -9.5740   1.2005   1.7845   2.0836   2.7705

          k = 0.0000 0.3849 0.0000 (  4765 PWs)   bands (ev):

   -20.9364 -13.9002 -10.1059  -8.7737   0.1631   2.3697   2.5820   3.2271

          k = 0.0000 0.4619 0.0000 (  4754 PWs)   bands (ev):

   -19.8976 -15.5148 -10.4833  -7.7069  -1.4469   2.3042   3.8990   4.7111

          k = 0.0000 0.5389 0.0000 (  4770 PWs)   bands (ev):

   -18.7960 -16.9147 -10.6769  -6.8245  -2.6214   2.1887   5.6161   6.4362

          k = 0.0667 0.1155 0.0000 (  4821 PWs)   bands (ev):

   -23.0977 -11.2288  -8.6761  -8.1721  -0.5573   0.2107   1.0080   1.3595

          k = 0.0667 0.1925 0.0000 (  4817 PWs)   bands (ev):

   -22.6993 -10.7631  -9.8852  -8.8438  -0.0151   0.7578   1.5613   1.9084

          k = 0.0667 0.2694 0.0000 (  4814 PWs)   bands (ev):

   -22.1057 -11.4043 -10.0777  -9.5512   0.7967   1.5700   2.3902   2.5625

          k = 0.0667 0.3464 0.0000 (  4788 PWs)   bands (ev):

   -21.3232 -13.0460 -10.1696  -9.1933   0.9316   1.8743   2.6796   3.1238

          k = 0.0667 0.4234 0.0000 (  4763 PWs)   bands (ev):

   -20.3643 -14.6825 -10.6407  -8.1594  -0.7167   2.8417   3.2443   4.0285

          k = 0.0667 0.5004 0.0000 (  4766 PWs)   bands (ev):

   -19.2681 -16.2080 -10.9340  -7.1230  -2.1580   2.6848   4.8257   5.6267

          k = 0.0667 0.5774 0.0000 (  4764 PWs)   bands (ev):

   -18.4321 -17.1907 -11.0329  -6.5822  -2.8388   2.6262   6.5690   6.7333

          k = 0.1333 0.2309 0.0000 (  4817 PWs)   bands (ev):

   -22.2043 -10.9591 -10.1898  -9.7359   0.6621   1.4395   2.2529   2.5936

          k = 0.1333 0.3079 0.0000 (  4790 PWs)   bands (ev):

   -21.5179 -12.2989 -10.5855  -9.4062   1.4211   1.6077   2.3924   3.2204

          k = 0.1333 0.3849 0.0000 (  4778 PWs)   bands (ev):

   -20.6492 -13.8115 -11.2275  -8.4433  -0.1210   2.8164   3.6033   4.1905

          k = 0.1333 0.4619 0.0000 (  4774 PWs)   bands (ev):

   -19.6195 -15.3373 -11.6521  -7.3773  -1.6212   3.9560   4.3089   5.0528

          k = 0.1333 0.5389 0.0000 (  4767 PWs)   bands (ev):

   -18.5294 -16.6914 -11.8645  -6.4724  -2.7610   3.8532   5.9913   6.6259

          k = 0.2000 0.3464 0.0000 (  4771 PWs)   bands (ev):

   -20.7449 -13.2980 -11.6714  -8.5397   0.1198   2.6840   3.4561   4.3254

          k = 0.2000 0.4234 0.0000 (  4779 PWs)   bands (ev):

   -19.8013 -14.5216 -12.4508  -7.5195  -1.2489   4.0166   4.7462   5.6755

          k = 0.2000 0.5004 0.0000 (  4775 PWs)   bands (ev):

   -18.7275 -15.8522 -12.8697  -6.4629  -2.5333   5.4908   5.6698   6.0818

          k = 0.2000 0.5774 0.0000 (  4770 PWs)   bands (ev):

   -17.9059 -16.7737 -13.0005  -5.8643  -3.2116   5.4967   6.6798   7.2015

          k = 0.2667 0.4619 0.0000 (  4767 PWs)   bands (ev):

   -18.8046 -15.3086 -13.4743  -6.4718  -2.4145   5.4513   5.8676   7.1674

          k = 0.2667 0.5389 0.0000 (  4761 PWs)   bands (ev):

   -17.7509 -16.2825 -13.9849  -5.4687  -3.4714   6.2212   6.9782   7.2711

          k = 0.3333 0.5774 0.0000 (  4758 PWs)   bands (ev):

   -16.8592 -16.8592 -14.4994  -4.4543  -4.4543   6.0566   7.8563   7.8563

     the Fermi energy is    -4.4543 ev

!    total energy              =     -22.78496746 Ry
     estimated scf accuracy    <          1.7E-09 Ry
     smearing contrib. (-TS)   =      -0.00005015 Ry
     internal energy E=F+TS    =     -22.78491731 Ry

     The total energy is F=E-TS. E is the sum of the following terms:
     one-electron contribution =    -367.36931127 Ry
     hartree contribution      =     184.25498424 Ry
     xc contribution           =      -6.90264574 Ry
     ewald contribution        =     167.23205546 Ry

     convergence has been achieved in   6 iterations

     Forces acting on atoms (cartesian axes, Ry/au):

     atom    1 type  1   force =     0.00000000    0.00000000    0.00000000
     atom    2 type  1   force =     0.00000000    0.00000000    0.00000000

     Total force =     0.000000     Total SCF correction =     0.000000


     Computing stress (Cartesian axis) and pressure

          total   stress  (Ry/bohr**3)                   (kbar)     P=      -43.45
  -0.00039306   0.00000000  -0.00000000          -57.82        0.00       -0.00
   0.00000000  -0.00039306   0.00000000            0.00      -57.82        0.00
  -0.00000000   0.00000000  -0.00009989           -0.00        0.00      -14.69


     Writing output data file ./work/LiC478.save/
 
     init_run     :      0.07s CPU      0.08s WALL (       1 calls)
     electrons    :      1.24s CPU      1.35s WALL (       1 calls)
     forces       :      0.01s CPU      0.01s WALL (       1 calls)
     stress       :      0.02s CPU      0.02s WALL (       1 calls)

     Called by init_run:
     wfcinit      :      0.05s CPU      0.06s WALL (       1 calls)
     potinit      :      0.00s CPU      0.01s WALL (       1 calls)
     hinit0       :      0.00s CPU      0.00s WALL (       1 calls)

     Called by electrons:
     c_bands      :      1.11s CPU      1.20s WALL (       6 calls)
     sum_band     :      0.11s CPU      0.12s WALL (       6 calls)
     v_of_rho     :      0.01s CPU      0.01s WALL (       7 calls)
     mix_rho      :      0.00s CPU      0.00s WALL (       6 calls)

     Called by c_bands:
     init_us_2    :      0.01s CPU      0.01s WALL (     405 calls)
     cegterg      :      1.10s CPU      1.18s WALL (     162 calls)

     Called by *egterg:
     cdiaghg      :      0.11s CPU      0.12s WALL (    1186 calls)
     h_psi        :      0.94s CPU      1.02s WALL (    1213 calls)
     g_psi        :      0.00s CPU      0.00s WALL (    1024 calls)

     Called by h_psi:
     h_psi:calbec :      0.04s CPU      0.04s WALL (    1213 calls)
     vloc_psi     :      0.88s CPU      0.95s WALL (    1213 calls)
     add_vuspsi   :      0.01s CPU      0.01s WALL (    1213 calls)

     General routines
     calbec       :      0.04s CPU      0.05s WALL (    1348 calls)
     fft          :      0.01s CPU      0.01s WALL (      77 calls)
     ffts         :      0.00s CPU      0.00s WALL (       6 calls)
     fftw         :      0.93s CPU      1.01s WALL (   13304 calls)
 
     Parallel routines
     fft_scatt_xy :      0.06s CPU      0.07s WALL (   13387 calls)
     fft_scatt_yz :      0.54s CPU      0.59s WALL (   13387 calls)
 
     PWSCF        :      1.38s CPU      1.81s WALL

 
   This run was terminated on:  11: 1:30  22Jan2024            

=------------------------------------------------------------------------------=
   JOB DONE.
=------------------------------------------------------------------------------=
