
     Program PWSCF v.6.7MaX starts on 22Jan2024 at 11: 1: 2 

     This program is part of the open-source Quantum ESPRESSO suite
     for quantum simulation of materials; please cite
         "P. Giannozzi et al., J. Phys.:Condens. Matter 21 395502 (2009);
         "P. Giannozzi et al., J. Phys.:Condens. Matter 29 465901 (2017);
          URL http://www.quantum-espresso.org", 
     in publications or presentations arising from this work. More details at
     http://www.quantum-espresso.org/quote

     Parallel version (MPI), running on    32 processors

     MPI processes distributed on     1 nodes
     R & G space division:  proc/nbgrp/npool/nimage =      32
     Waiting for input...
     Reading input from standard input
Warning: card &CELL ignored
Warning: card  CELL_DYNAMICS = 'BFGS', ignored
Warning: card  PRESS = 0.0, ignored
Warning: card  PRESS_CONV_THR = 1D-3, ignored
Warning: card  CELL_DOFREE='2DXY' ignored
Warning: card / ignored

     Current dimensions of program PWSCF are:
     Max number of different atomic species (ntypx) = 10
     Max number of k-points (npk) =  40000
     Max angular momentum in pseudopotentials (lmaxx) =  3
     Message from routine read_pp_mesh:
     mesh size missing, using the one in header

     Subspace diagonalization in iterative solution of the eigenvalue problem:
     a serial algorithm will be used

 
     Parallelization info
     --------------------
     sticks:   dense  smooth     PW     G-vecs:    dense   smooth      PW
     Min           9       9      2                 1129     1129     170
     Max          10      10      3                 1160     1160     215
     Sum         301     301     91                36507    36507    6433
 


     bravais-lattice index     =            4
     lattice parameter (alat)  =       4.6600  a.u.
     unit-cell volume          =     761.6536 (a.u.)^3
     number of atoms/cell      =            2
     number of atomic types    =            1
     number of electrons       =         8.00
     number of Kohn-Sham states=            8
     kinetic-energy cutoff     =      50.0000  Ry
     charge density cutoff     =     200.0000  Ry
     scf convergence threshold =      1.0E-08
     mixing beta               =       0.7000
     number of iterations used =            8  plain     mixing
     Exchange-correlation= PBE
                           (   1   4   3   4   0   0   0)

     celldm(1)=   4.660000  celldm(2)=   0.000000  celldm(3)=   8.690987
     celldm(4)=   0.000000  celldm(5)=   0.000000  celldm(6)=   0.000000

     crystal axes: (cart. coord. in units of alat)
               a(1) = (   1.000000   0.000000   0.000000 )  
               a(2) = (  -0.500000   0.866025   0.000000 )  
               a(3) = (   0.000000   0.000000   8.690987 )  

     reciprocal axes: (cart. coord. in units 2 pi/alat)
               b(1) = (  1.000000  0.577350  0.000000 )  
               b(2) = (  0.000000  1.154701  0.000000 )  
               b(3) = (  0.000000  0.000000  0.115062 )  


     PseudoPot. # 1 for C  read from file:
     /home/yhkim/qe-6.7/pseudo/ONCV1/1.2/C_ONCV_PBE-1.2.upf
     MD5 check sum: 1a5f83a7b1f58d24996abe00ed223ac6
     Pseudo is Norm-conserving, Zval =  4.0
     Generated using ONCVPSP code by D. R. Hamann
     Using radial grid of  602 points,  4 beta functions with: 
                l(1) =   0
                l(2) =   0
                l(3) =   1
                l(4) =   1

     atomic species   valence    mass     pseudopotential
        C              4.00    12.01070     C ( 1.00)

     24 Sym. Ops., with inversion, found



   Cartesian axes

     site n.     atom                  positions (alat units)
         1           C   tau(   1) = (  -0.0000000   0.5773503   4.3454936  )
         2           C   tau(   2) = (   0.5000000   0.2886751   4.3454936  )

     number of k points=    27  Methfessel-Paxton smearing, width (Ry)=  0.0100
                       cart. coord. in units 2pi/alat
        k(    1) = (   0.0000000   0.0000000   0.0000000), wk =   0.0088889
        k(    2) = (   0.0000000   0.0769800   0.0000000), wk =   0.0533333
        k(    3) = (   0.0000000   0.1539601   0.0000000), wk =   0.0533333
        k(    4) = (   0.0000000   0.2309401   0.0000000), wk =   0.0533333
        k(    5) = (   0.0000000   0.3079201   0.0000000), wk =   0.0533333
        k(    6) = (   0.0000000   0.3849002   0.0000000), wk =   0.0533333
        k(    7) = (   0.0000000   0.4618802   0.0000000), wk =   0.0533333
        k(    8) = (   0.0000000   0.5388603   0.0000000), wk =   0.0533333
        k(    9) = (   0.0666667   0.1154701   0.0000000), wk =   0.0533333
        k(   10) = (   0.0666667   0.1924501   0.0000000), wk =   0.1066667
        k(   11) = (   0.0666667   0.2694301   0.0000000), wk =   0.1066667
        k(   12) = (   0.0666667   0.3464102   0.0000000), wk =   0.1066667
        k(   13) = (   0.0666667   0.4233902   0.0000000), wk =   0.1066667
        k(   14) = (   0.0666667   0.5003702   0.0000000), wk =   0.1066667
        k(   15) = (   0.0666667   0.5773503   0.0000000), wk =   0.0533333
        k(   16) = (   0.1333333   0.2309401   0.0000000), wk =   0.0533333
        k(   17) = (   0.1333333   0.3079201   0.0000000), wk =   0.1066667
        k(   18) = (   0.1333333   0.3849002   0.0000000), wk =   0.1066667
        k(   19) = (   0.1333333   0.4618802   0.0000000), wk =   0.1066667
        k(   20) = (   0.1333333   0.5388603   0.0000000), wk =   0.1066667
        k(   21) = (   0.2000000   0.3464102   0.0000000), wk =   0.0533333
        k(   22) = (   0.2000000   0.4233902   0.0000000), wk =   0.1066667
        k(   23) = (   0.2000000   0.5003702   0.0000000), wk =   0.1066667
        k(   24) = (   0.2000000   0.5773503   0.0000000), wk =   0.0533333
        k(   25) = (   0.2666667   0.4618802   0.0000000), wk =   0.0533333
        k(   26) = (   0.2666667   0.5388603   0.0000000), wk =   0.1066667
        k(   27) = (   0.3333333   0.5773503   0.0000000), wk =   0.0177778

     Dense  grid:    36507 G-vectors     FFT dimensions: (  24,  24, 192)

     Estimated max dynamical RAM per process >       1.64 MB

     Estimated total dynamical RAM >      52.33 MB
 ----2D----2D----2D----2D----2D----2D----2D----2D----2D----2D----2D----2D
  The code is running with the 2D cutoff
  Please refer to:
  Sohier, T., Calandra, M., & Mauri, F. (2017), 
  Density functional perturbation theory for gated two-dimensional heterostructu
 res:
  Theoretical developments and application to flexural phonons in graphene.
  Physical Review B, 96(7), 75448. https://doi.org/10.1103/PhysRevB.96.075448
 ----2D----2D----2D----2D----2D----2D----2D----2D----2D----2D----2D----2D

     Initial potential from superposition of free atoms

     starting charge    7.98607, renormalised to    8.00000

     negative rho (up, down):  1.140E-04 0.000E+00
     Starting wfcs are random

     total cpu time spent up to now is        0.1 secs

     Self-consistent Calculation

     iteration #  1     ecut=    50.00 Ry     beta= 0.70
     Davidson diagonalization with overlap
     ethr =  1.00E-02,  avg # of iterations = 11.9

     negative rho (up, down):  8.982E-08 0.000E+00

     total cpu time spent up to now is        0.5 secs

     total energy              =     -22.76108283 Ry
     estimated scf accuracy    <       0.16761780 Ry

     iteration #  2     ecut=    50.00 Ry     beta= 0.70
     Davidson diagonalization with overlap
     ethr =  2.10E-03,  avg # of iterations =  2.0

     total cpu time spent up to now is        0.6 secs

     total energy              =     -22.78786331 Ry
     estimated scf accuracy    <       0.00205953 Ry

     iteration #  3     ecut=    50.00 Ry     beta= 0.70
     Davidson diagonalization with overlap
     ethr =  2.57E-05,  avg # of iterations = 10.8

     total cpu time spent up to now is        0.8 secs

     total energy              =     -22.79097410 Ry
     estimated scf accuracy    <       0.00015452 Ry

     iteration #  4     ecut=    50.00 Ry     beta= 0.70
     Davidson diagonalization with overlap
     ethr =  1.93E-06,  avg # of iterations =  5.6

     total cpu time spent up to now is        1.0 secs

     total energy              =     -22.79100964 Ry
     estimated scf accuracy    <       0.00000026 Ry

     iteration #  5     ecut=    50.00 Ry     beta= 0.70
     Davidson diagonalization with overlap
     ethr =  3.20E-09,  avg # of iterations =  4.6

     total cpu time spent up to now is        1.2 secs

     total energy              =     -22.79101240 Ry
     estimated scf accuracy    <       0.00000003 Ry

     iteration #  6     ecut=    50.00 Ry     beta= 0.70
     Davidson diagonalization with overlap
     ethr =  3.16E-10,  avg # of iterations =  2.0

     total cpu time spent up to now is        1.3 secs

     End of self-consistent calculation

          k = 0.0000 0.0000 0.0000 (  4507 PWs)   bands (ev):

   -23.7888 -11.8719  -7.3276  -7.3276  -0.9798  -0.2030   0.5859   0.9407

          k = 0.0000 0.0770 0.0000 (  4523 PWs)   bands (ev):

   -23.6839 -11.7452  -7.7512  -7.5506  -0.8373  -0.0584   0.7314   1.0857

          k = 0.0000 0.1540 0.0000 (  4559 PWs)   bands (ev):

   -23.3703 -11.3707  -8.8771  -8.1133  -0.4098   0.3747   1.1679   1.5199

          k = 0.0000 0.2309 0.0000 (  4545 PWs)   bands (ev):

   -22.8498 -10.7545 -10.4181  -8.8151   0.3023   1.0940   1.8952   2.2413

          k = 0.0000 0.3079 0.0000 (  4547 PWs)   bands (ev):

   -22.1269 -12.1488  -9.9107  -9.5007   1.2967   2.0577   2.5854   2.9110

          k = 0.0000 0.3849 0.0000 (  4561 PWs)   bands (ev):

   -21.2090 -13.9131 -10.0723  -8.8738   0.6739   2.5636   3.4149   3.4629

          k = 0.0000 0.4619 0.0000 (  4559 PWs)   bands (ev):

   -20.1124 -15.6098 -10.4743  -7.7293  -1.0737   3.2311   4.1477   4.9803

          k = 0.0000 0.5389 0.0000 (  4574 PWs)   bands (ev):

   -18.9148 -17.1175 -10.6827  -6.7728  -2.3533   3.1326   5.9496   6.8079

          k = 0.0667 0.1155 0.0000 (  4557 PWs)   bands (ev):

   -23.4747 -11.4954  -8.4748  -7.9952  -0.5522   0.2304   1.0224   1.3752

          k = 0.0667 0.1925 0.0000 (  4548 PWs)   bands (ev):

   -23.0577 -10.9991  -9.7186  -8.7178   0.0179   0.8071   1.6045   1.9536

          k = 0.0667 0.2694 0.0000 (  4549 PWs)   bands (ev):

   -22.4360 -11.2974 -10.2686  -9.4723   0.8719   1.6658   2.4772   2.8094

          k = 0.0667 0.3464 0.0000 (  4544 PWs)   bands (ev):

   -21.6154 -13.0136 -10.1317  -9.3232   1.5135   2.0062   2.8408   3.6337

          k = 0.0667 0.4234 0.0000 (  4563 PWs)   bands (ev):

   -20.6070 -14.7301 -10.6339  -8.2167  -0.2739   3.3956   3.8360   4.2598

          k = 0.0667 0.5004 0.0000 (  4559 PWs)   bands (ev):

   -19.4404 -16.3440 -10.9455  -7.1000  -1.8392   3.6387   5.1186   5.9507

          k = 0.0667 0.5774 0.0000 (  4586 PWs)   bands (ev):

   -18.4872 -17.4507 -11.0515  -6.5125  -2.5852   3.5867   6.9640   7.1216

          k = 0.1333 0.2309 0.0000 (  4529 PWs)   bands (ev):

   -22.5392 -10.8165 -10.3879  -9.6769   0.7304   1.5259   2.3324   2.6751

          k = 0.1333 0.3079 0.0000 (  4541 PWs)   bands (ev):

   -21.8200 -12.2100 -10.5809  -9.5514   1.7253   2.0612   2.5359   3.3507

          k = 0.1333 0.3849 0.0000 (  4550 PWs)   bands (ev):

   -20.9080 -13.7975 -11.2530  -8.5218   0.3893   2.9980   3.8109   4.6545

          k = 0.1333 0.4619 0.0000 (  4558 PWs)   bands (ev):

   -19.8207 -15.4069 -11.6978  -7.3781  -1.2396   4.5256   4.9946   5.3452

          k = 0.1333 0.5389 0.0000 (  4544 PWs)   bands (ev):

   -18.6383 -16.8673 -11.9187  -6.3988  -2.4775   4.8570   6.3488   7.0291

          k = 0.2000 0.3464 0.0000 (  4549 PWs)   bands (ev):

   -21.0088 -13.2235 -11.7490  -8.6261   0.6615   2.8584   3.6544   4.5142

          k = 0.2000 0.4234 0.0000 (  4531 PWs)   bands (ev):

   -20.0156 -14.5037 -12.5665  -7.5320  -0.8148   4.2626   5.0212   5.9638

          k = 0.2000 0.5004 0.0000 (  4537 PWs)   bands (ev):

   -18.8741 -15.9265 -12.9934  -6.3962  -2.2041   5.9117   6.4488   6.6458

          k = 0.2000 0.5774 0.0000 (  4538 PWs)   bands (ev):

   -17.9483 -16.9615 -13.1262  -5.7475  -2.9417   6.5634   7.0919   7.6634

          k = 0.2667 0.4619 0.0000 (  4523 PWs)   bands (ev):

   -18.9618 -15.2858 -13.6858  -6.4077  -2.0603   5.7792   6.2170   7.5083

          k = 0.2667 0.5389 0.0000 (  4527 PWs)   bands (ev):

   -17.8273 -16.3295 -14.2265  -5.3281  -3.1978   6.5733   7.4667   8.3144

          k = 0.3333 0.5774 0.0000 (  4533 PWs)   bands (ev):

   -16.8760 -16.8760 -14.8388  -4.2426  -4.2426   6.3800   8.6379   8.6382

     the Fermi energy is    -4.2426 ev

!    total energy              =     -22.79101240 Ry
     estimated scf accuracy    <          2.3E-10 Ry
     smearing contrib. (-TS)   =      -0.00005015 Ry
     internal energy E=F+TS    =     -22.79096225 Ry

     The total energy is F=E-TS. E is the sum of the following terms:
     one-electron contribution =    -386.74639376 Ry
     hartree contribution      =     193.99160110 Ry
     xc contribution           =      -7.00970762 Ry
     ewald contribution        =     176.97353802 Ry

     convergence has been achieved in   6 iterations

     Forces acting on atoms (cartesian axes, Ry/au):

     atom    1 type  1   force =     0.00000000    0.00000000    0.00000000
     atom    2 type  1   force =     0.00000000    0.00000000    0.00000000

     Total force =     0.000000     Total SCF correction =     0.000000


     Computing stress (Cartesian axis) and pressure

          total   stress  (Ry/bohr**3)                   (kbar)     P=      -15.64
  -0.00010573   0.00000000  -0.00000000          -15.55        0.00       -0.00
   0.00000000  -0.00010573   0.00000000            0.00      -15.55        0.00
   0.00000000   0.00000000  -0.00010760            0.00        0.00      -15.83


     Writing output data file ./work/LiC466.save/
 
     init_run     :      0.06s CPU      0.08s WALL (       1 calls)
     electrons    :      1.08s CPU      1.18s WALL (       1 calls)
     forces       :      0.01s CPU      0.01s WALL (       1 calls)
     stress       :      0.02s CPU      0.02s WALL (       1 calls)

     Called by init_run:
     wfcinit      :      0.05s CPU      0.06s WALL (       1 calls)
     potinit      :      0.00s CPU      0.01s WALL (       1 calls)
     hinit0       :      0.00s CPU      0.00s WALL (       1 calls)

     Called by electrons:
     c_bands      :      0.96s CPU      1.05s WALL (       6 calls)
     sum_band     :      0.10s CPU      0.10s WALL (       6 calls)
     v_of_rho     :      0.01s CPU      0.02s WALL (       7 calls)
     mix_rho      :      0.00s CPU      0.00s WALL (       6 calls)

     Called by c_bands:
     init_us_2    :      0.01s CPU      0.01s WALL (     405 calls)
     cegterg      :      0.94s CPU      1.03s WALL (     162 calls)

     Called by *egterg:
     cdiaghg      :      0.10s CPU      0.11s WALL (    1159 calls)
     h_psi        :      0.80s CPU      0.87s WALL (    1186 calls)
     g_psi        :      0.00s CPU      0.00s WALL (     997 calls)

     Called by h_psi:
     h_psi:calbec :      0.03s CPU      0.04s WALL (    1186 calls)
     vloc_psi     :      0.74s CPU      0.81s WALL (    1186 calls)
     add_vuspsi   :      0.01s CPU      0.01s WALL (    1186 calls)

     General routines
     calbec       :      0.04s CPU      0.04s WALL (    1321 calls)
     fft          :      0.01s CPU      0.01s WALL (      77 calls)
     ffts         :      0.00s CPU      0.00s WALL (       6 calls)
     fftw         :      0.78s CPU      0.85s WALL (   13234 calls)
 
     Parallel routines
     fft_scatt_xy :      0.06s CPU      0.06s WALL (   13317 calls)
     fft_scatt_yz :      0.41s CPU      0.44s WALL (   13317 calls)
 
     PWSCF        :      1.22s CPU      1.61s WALL

 
   This run was terminated on:  11: 1: 4  22Jan2024            

=------------------------------------------------------------------------------=
   JOB DONE.
=------------------------------------------------------------------------------=
