
     Program PWSCF v.6.7MaX starts on 22Jan2024 at 11: 1:41 

     This program is part of the open-source Quantum ESPRESSO suite
     for quantum simulation of materials; please cite
         "P. Giannozzi et al., J. Phys.:Condens. Matter 21 395502 (2009);
         "P. Giannozzi et al., J. Phys.:Condens. Matter 29 465901 (2017);
          URL http://www.quantum-espresso.org", 
     in publications or presentations arising from this work. More details at
     http://www.quantum-espresso.org/quote

     Parallel version (MPI), running on    32 processors

     MPI processes distributed on     1 nodes
     R & G space division:  proc/nbgrp/npool/nimage =      32
     Waiting for input...
     Reading input from standard input
Warning: card &CELL ignored
Warning: card  CELL_DYNAMICS = 'BFGS', ignored
Warning: card  PRESS = 0.0, ignored
Warning: card  PRESS_CONV_THR = 1D-3, ignored
Warning: card  CELL_DOFREE='2DXY' ignored
Warning: card / ignored

     Current dimensions of program PWSCF are:
     Max number of different atomic species (ntypx) = 10
     Max number of k-points (npk) =  40000
     Max angular momentum in pseudopotentials (lmaxx) =  3
     Message from routine read_pp_mesh:
     mesh size missing, using the one in header

     Subspace diagonalization in iterative solution of the eigenvalue problem:
     a serial algorithm will be used

 
     Parallelization info
     --------------------
     sticks:   dense  smooth     PW     G-vecs:    dense   smooth      PW
     Min           9       9      3                 1185     1185     202
     Max          10      10      6                 1240     1240     225
     Sum         313     313    109                39111    39111    6871
 


     bravais-lattice index     =            4
     lattice parameter (alat)  =       4.8400  a.u.
     unit-cell volume          =     821.6302 (a.u.)^3
     number of atoms/cell      =            2
     number of atomic types    =            1
     number of electrons       =         8.00
     number of Kohn-Sham states=            8
     kinetic-energy cutoff     =      50.0000  Ry
     charge density cutoff     =     200.0000  Ry
     scf convergence threshold =      1.0E-08
     mixing beta               =       0.7000
     number of iterations used =            8  plain     mixing
     Exchange-correlation= PBE
                           (   1   4   3   4   0   0   0)

     celldm(1)=   4.840000  celldm(2)=   0.000000  celldm(3)=   8.367769
     celldm(4)=   0.000000  celldm(5)=   0.000000  celldm(6)=   0.000000

     crystal axes: (cart. coord. in units of alat)
               a(1) = (   1.000000   0.000000   0.000000 )  
               a(2) = (  -0.500000   0.866025   0.000000 )  
               a(3) = (   0.000000   0.000000   8.367769 )  

     reciprocal axes: (cart. coord. in units 2 pi/alat)
               b(1) = (  1.000000  0.577350  0.000000 )  
               b(2) = (  0.000000  1.154701  0.000000 )  
               b(3) = (  0.000000  0.000000  0.119506 )  


     PseudoPot. # 1 for C  read from file:
     /home/yhkim/qe-6.7/pseudo/ONCV1/1.2/C_ONCV_PBE-1.2.upf
     MD5 check sum: 1a5f83a7b1f58d24996abe00ed223ac6
     Pseudo is Norm-conserving, Zval =  4.0
     Generated using ONCVPSP code by D. R. Hamann
     Using radial grid of  602 points,  4 beta functions with: 
                l(1) =   0
                l(2) =   0
                l(3) =   1
                l(4) =   1

     atomic species   valence    mass     pseudopotential
        C              4.00    12.01070     C ( 1.00)

     24 Sym. Ops., with inversion, found



   Cartesian axes

     site n.     atom                  positions (alat units)
         1           C   tau(   1) = (  -0.0000000   0.5773503   4.1838843  )
         2           C   tau(   2) = (   0.5000000   0.2886751   4.1838843  )

     number of k points=    27  Methfessel-Paxton smearing, width (Ry)=  0.0100
                       cart. coord. in units 2pi/alat
        k(    1) = (   0.0000000   0.0000000   0.0000000), wk =   0.0088889
        k(    2) = (   0.0000000   0.0769800   0.0000000), wk =   0.0533333
        k(    3) = (   0.0000000   0.1539601   0.0000000), wk =   0.0533333
        k(    4) = (   0.0000000   0.2309401   0.0000000), wk =   0.0533333
        k(    5) = (   0.0000000   0.3079201   0.0000000), wk =   0.0533333
        k(    6) = (   0.0000000   0.3849002   0.0000000), wk =   0.0533333
        k(    7) = (   0.0000000   0.4618802   0.0000000), wk =   0.0533333
        k(    8) = (   0.0000000   0.5388603   0.0000000), wk =   0.0533333
        k(    9) = (   0.0666667   0.1154701   0.0000000), wk =   0.0533333
        k(   10) = (   0.0666667   0.1924501   0.0000000), wk =   0.1066667
        k(   11) = (   0.0666667   0.2694301   0.0000000), wk =   0.1066667
        k(   12) = (   0.0666667   0.3464102   0.0000000), wk =   0.1066667
        k(   13) = (   0.0666667   0.4233902   0.0000000), wk =   0.1066667
        k(   14) = (   0.0666667   0.5003702   0.0000000), wk =   0.1066667
        k(   15) = (   0.0666667   0.5773503   0.0000000), wk =   0.0533333
        k(   16) = (   0.1333333   0.2309401   0.0000000), wk =   0.0533333
        k(   17) = (   0.1333333   0.3079201   0.0000000), wk =   0.1066667
        k(   18) = (   0.1333333   0.3849002   0.0000000), wk =   0.1066667
        k(   19) = (   0.1333333   0.4618802   0.0000000), wk =   0.1066667
        k(   20) = (   0.1333333   0.5388603   0.0000000), wk =   0.1066667
        k(   21) = (   0.2000000   0.3464102   0.0000000), wk =   0.0533333
        k(   22) = (   0.2000000   0.4233902   0.0000000), wk =   0.1066667
        k(   23) = (   0.2000000   0.5003702   0.0000000), wk =   0.1066667
        k(   24) = (   0.2000000   0.5773503   0.0000000), wk =   0.0533333
        k(   25) = (   0.2666667   0.4618802   0.0000000), wk =   0.0533333
        k(   26) = (   0.2666667   0.5388603   0.0000000), wk =   0.1066667
        k(   27) = (   0.3333333   0.5773503   0.0000000), wk =   0.0177778

     Dense  grid:    39111 G-vectors     FFT dimensions: (  24,  24, 192)

     Estimated max dynamical RAM per process >       1.72 MB

     Estimated total dynamical RAM >      55.08 MB
 ----2D----2D----2D----2D----2D----2D----2D----2D----2D----2D----2D----2D
  The code is running with the 2D cutoff
  Please refer to:
  Sohier, T., Calandra, M., & Mauri, F. (2017), 
  Density functional perturbation theory for gated two-dimensional heterostructu
 res:
  Theoretical developments and application to flexural phonons in graphene.
  Physical Review B, 96(7), 75448. https://doi.org/10.1103/PhysRevB.96.075448
 ----2D----2D----2D----2D----2D----2D----2D----2D----2D----2D----2D----2D

     Initial potential from superposition of free atoms

     starting charge    7.98607, renormalised to    8.00000

     negative rho (up, down):  1.181E-04 0.000E+00
     Starting wfcs are random

     total cpu time spent up to now is        0.1 secs

     Self-consistent Calculation

     iteration #  1     ecut=    50.00 Ry     beta= 0.70
     Davidson diagonalization with overlap
     ethr =  1.00E-02,  avg # of iterations = 11.9

     negative rho (up, down):  1.367E-07 0.000E+00

     total cpu time spent up to now is        0.6 secs

     total energy              =     -22.75430638 Ry
     estimated scf accuracy    <       0.11630089 Ry

     iteration #  2     ecut=    50.00 Ry     beta= 0.70
     Davidson diagonalization with overlap
     ethr =  1.45E-03,  avg # of iterations =  2.1

     total cpu time spent up to now is        0.7 secs

     total energy              =     -22.77431310 Ry
     estimated scf accuracy    <       0.00205958 Ry

     iteration #  3     ecut=    50.00 Ry     beta= 0.70
     Davidson diagonalization with overlap
     ethr =  2.57E-05,  avg # of iterations =  9.1

     total cpu time spent up to now is        1.0 secs

     total energy              =     -22.77759276 Ry
     estimated scf accuracy    <       0.00013126 Ry

     iteration #  4     ecut=    50.00 Ry     beta= 0.70
     Davidson diagonalization with overlap
     c_bands:  1 eigenvalues not converged
     ethr =  1.64E-06,  avg # of iterations =  6.2

     total cpu time spent up to now is        1.2 secs

     total energy              =     -22.77763236 Ry
     estimated scf accuracy    <       0.00000018 Ry

     iteration #  5     ecut=    50.00 Ry     beta= 0.70
     Davidson diagonalization with overlap
     ethr =  2.28E-09,  avg # of iterations =  4.7

     total cpu time spent up to now is        1.4 secs

     total energy              =     -22.77763505 Ry
     estimated scf accuracy    <       0.00000003 Ry

     iteration #  6     ecut=    50.00 Ry     beta= 0.70
     Davidson diagonalization with overlap
     ethr =  3.24E-10,  avg # of iterations =  2.0

     total cpu time spent up to now is        1.5 secs

     End of self-consistent calculation

          k = 0.0000 0.0000 0.0000 (  4999 PWs)   bands (ev):

   -23.2058 -11.4436  -7.6574  -7.6574  -0.9562  -0.1995   0.5967   0.9502

          k = 0.0000 0.0770 0.0000 (  4991 PWs)   bands (ev):

   -23.1080 -11.3290  -8.0660  -7.8532  -0.8239  -0.0659   0.7317   1.0842

          k = 0.0000 0.1540 0.0000 (  4959 PWs)   bands (ev):

   -22.8150 -10.9875  -9.1450  -8.3542  -0.4270   0.3347   1.1364   1.4860

          k = 0.0000 0.2309 0.0000 (  4933 PWs)   bands (ev):

   -22.3292 -10.6116 -10.4273  -8.9839   0.2338   0.9991   1.8103   2.1514

          k = 0.0000 0.3079 0.0000 (  4923 PWs)   bands (ev):

   -21.6553 -12.2408  -9.6622  -9.6016   1.1556   1.5233   1.9768   2.4075

          k = 0.0000 0.3849 0.0000 (  4920 PWs)   bands (ev):

   -20.8021 -13.8914 -10.1180  -8.7241  -0.0786   2.0747   2.3650   3.1384

          k = 0.0000 0.4619 0.0000 (  4866 PWs)   bands (ev):

   -19.7916 -15.4654 -10.4800  -7.6949  -1.6238   1.8642   3.7849   4.5836

          k = 0.0000 0.5389 0.0000 (  4852 PWs)   bands (ev):

   -18.7353 -16.8119 -10.6682  -6.8456  -2.7494   1.7449   5.4594   6.2600

          k = 0.0667 0.1155 0.0000 (  4975 PWs)   bands (ev):

   -22.9125 -11.1013  -8.7648  -8.2480  -0.5592   0.2012   1.0016   1.3521

          k = 0.0667 0.1925 0.0000 (  4946 PWs)   bands (ev):

   -22.5231 -10.6503  -9.9571  -8.8967  -0.0302   0.7343   1.5411   1.8870

          k = 0.0667 0.2694 0.0000 (  4919 PWs)   bands (ev):

   -21.9431 -11.4487  -9.9858  -9.5793   0.7618   1.5234   2.2360   2.3491

          k = 0.0667 0.3464 0.0000 (  4913 PWs)   bands (ev):

   -21.1792 -13.0578 -10.1791  -9.1304   0.6570   1.8123   2.6045   2.6902

          k = 0.0667 0.4234 0.0000 (  4886 PWs)   bands (ev):

   -20.2446 -14.6561 -10.6358  -8.1311  -0.9251   2.4062   3.1367   3.9190

          k = 0.0667 0.5004 0.0000 (  4864 PWs)   bands (ev):

   -19.1824 -16.1380 -10.9200  -7.1319  -2.3071   2.2344   4.6889   5.4734

          k = 0.0667 0.5774 0.0000 (  4856 PWs)   bands (ev):

   -18.3975 -17.0656 -11.0162  -6.6134  -2.9613   2.1741   6.3827   6.5503

          k = 0.1333 0.2309 0.0000 (  4941 PWs)   bands (ev):

   -22.0395 -11.0209 -10.0950  -9.7547   0.6304   1.3986   2.2158   2.4855

          k = 0.1333 0.3079 0.0000 (  4919 PWs)   bands (ev):

   -21.3690 -12.3377 -10.5798  -9.3357   1.1171   1.5528   2.3259   3.1588

          k = 0.1333 0.3849 0.0000 (  4893 PWs)   bands (ev):

   -20.5217 -13.8146 -11.2059  -8.4045  -0.3593   2.7309   3.5052   3.7331

          k = 0.1333 0.4619 0.0000 (  4890 PWs)   bands (ev):

   -19.5197 -15.2999 -11.6223  -7.3756  -1.8014   3.4950   4.1742   4.9144

          k = 0.1333 0.5389 0.0000 (  4881 PWs)   bands (ev):

   -18.4735 -16.6039 -11.8298  -6.5051  -2.8942   3.3781   5.8232   6.4354

          k = 0.2000 0.3464 0.0000 (  4919 PWs)   bands (ev):

   -20.6147 -13.3300 -11.6265  -8.4975  -0.1352   2.6022   3.3622   4.2366

          k = 0.2000 0.4234 0.0000 (  4903 PWs)   bands (ev):

   -19.6952 -14.5251 -12.3860  -7.5116  -1.4527   3.9007   4.6162   5.2487

          k = 0.2000 0.5004 0.0000 (  4898 PWs)   bands (ev):

   -18.6541 -15.8139 -12.8001  -6.4934  -2.6880   5.0422   5.4524   5.9090

          k = 0.2000 0.5774 0.0000 (  4892 PWs)   bands (ev):

   -17.8779 -16.6860 -12.9310  -5.9178  -3.3392   4.9880   6.4874   6.9777

          k = 0.2667 0.4619 0.0000 (  4897 PWs)   bands (ev):

   -18.7260 -15.3132 -13.3656  -6.5003  -2.5796   5.2960   5.7033   6.7299

          k = 0.2667 0.5389 0.0000 (  4899 PWs)   bands (ev):

   -17.7104 -16.2572 -13.8612  -5.5331  -3.5994   6.0566   6.6103   6.8878

          k = 0.3333 0.5774 0.0000 (  4878 PWs)   bands (ev):

   -16.8442 -16.8442 -14.3365  -4.5527  -4.5527   5.9053   7.4421   7.4422

     the Fermi energy is    -4.5527 ev

!    total energy              =     -22.77763506 Ry
     estimated scf accuracy    <          6.3E-10 Ry
     smearing contrib. (-TS)   =      -0.00005015 Ry
     internal energy E=F+TS    =     -22.77758491 Ry

     The total energy is F=E-TS. E is the sum of the following terms:
     one-electron contribution =    -358.22862175 Ry
     hartree contribution      =     179.66283928 Ry
     xc contribution           =      -6.85156675 Ry
     ewald contribution        =     162.63976431 Ry

     convergence has been achieved in   6 iterations

     Forces acting on atoms (cartesian axes, Ry/au):

     atom    1 type  1   force =     0.00000000    0.00000000    0.00000000
     atom    2 type  1   force =     0.00000000    0.00000000    0.00000000

     Total force =     0.000000     Total SCF correction =     0.000000


     Computing stress (Cartesian axis) and pressure

          total   stress  (Ry/bohr**3)                   (kbar)     P=      -54.88
  -0.00051142  -0.00000000  -0.00000000          -75.23       -0.00       -0.00
  -0.00000000  -0.00051142   0.00000000           -0.00      -75.23        0.00
  -0.00000000   0.00000000  -0.00009630           -0.00        0.00      -14.17


     Writing output data file ./work/LiC484.save/
 
     init_run     :      0.07s CPU      0.09s WALL (       1 calls)
     electrons    :      1.29s CPU      1.40s WALL (       1 calls)
     forces       :      0.01s CPU      0.01s WALL (       1 calls)
     stress       :      0.02s CPU      0.02s WALL (       1 calls)

     Called by init_run:
     wfcinit      :      0.06s CPU      0.07s WALL (       1 calls)
     potinit      :      0.01s CPU      0.01s WALL (       1 calls)
     hinit0       :      0.00s CPU      0.00s WALL (       1 calls)

     Called by electrons:
     c_bands      :      1.16s CPU      1.24s WALL (       6 calls)
     sum_band     :      0.11s CPU      0.12s WALL (       6 calls)
     v_of_rho     :      0.01s CPU      0.01s WALL (       7 calls)
     mix_rho      :      0.00s CPU      0.00s WALL (       6 calls)

     Called by c_bands:
     init_us_2    :      0.01s CPU      0.01s WALL (     405 calls)
     cegterg      :      1.14s CPU      1.22s WALL (     162 calls)

     Called by *egterg:
     cdiaghg      :      0.10s CPU      0.11s WALL (    1135 calls)
     h_psi        :      1.00s CPU      1.07s WALL (    1162 calls)
     g_psi        :      0.00s CPU      0.00s WALL (     973 calls)

     Called by h_psi:
     h_psi:calbec :      0.04s CPU      0.05s WALL (    1162 calls)
     vloc_psi     :      0.94s CPU      1.00s WALL (    1162 calls)
     add_vuspsi   :      0.01s CPU      0.01s WALL (    1162 calls)

     General routines
     calbec       :      0.05s CPU      0.05s WALL (    1297 calls)
     fft          :      0.01s CPU      0.01s WALL (      77 calls)
     ffts         :      0.00s CPU      0.00s WALL (       6 calls)
     fftw         :      0.98s CPU      1.06s WALL (   13292 calls)
 
     Parallel routines
     fft_scatt_xy :      0.06s CPU      0.06s WALL (   13375 calls)
     fft_scatt_yz :      0.60s CPU      0.65s WALL (   13375 calls)
 
     PWSCF        :      1.44s CPU      1.80s WALL

 
   This run was terminated on:  11: 1:42  22Jan2024            

=------------------------------------------------------------------------------=
   JOB DONE.
=------------------------------------------------------------------------------=
