
     Program PWSCF v.6.7MaX starts on 22Jan2024 at 11: 0:48 

     This program is part of the open-source Quantum ESPRESSO suite
     for quantum simulation of materials; please cite
         "P. Giannozzi et al., J. Phys.:Condens. Matter 21 395502 (2009);
         "P. Giannozzi et al., J. Phys.:Condens. Matter 29 465901 (2017);
          URL http://www.quantum-espresso.org", 
     in publications or presentations arising from this work. More details at
     http://www.quantum-espresso.org/quote

     Parallel version (MPI), running on    32 processors

     MPI processes distributed on     1 nodes
     R & G space division:  proc/nbgrp/npool/nimage =      32
     Waiting for input...
     Reading input from standard input
Warning: card &CELL ignored
Warning: card  CELL_DYNAMICS = 'BFGS', ignored
Warning: card  PRESS = 0.0, ignored
Warning: card  PRESS_CONV_THR = 1D-3, ignored
Warning: card  CELL_DOFREE='2DXY' ignored
Warning: card / ignored

     Current dimensions of program PWSCF are:
     Max number of different atomic species (ntypx) = 10
     Max number of k-points (npk) =  40000
     Max angular momentum in pseudopotentials (lmaxx) =  3
     Message from routine read_pp_mesh:
     mesh size missing, using the one in header

     Subspace diagonalization in iterative solution of the eigenvalue problem:
     a serial algorithm will be used

 
     Parallelization info
     --------------------
     sticks:   dense  smooth     PW     G-vecs:    dense   smooth      PW
     Min           9       9      2                 1099     1099     170
     Max          10      10      3                 1120     1120     213
     Sum         295     295     91                35373    35373    6325
 


     bravais-lattice index     =            4
     lattice parameter (alat)  =       4.5900  a.u.
     unit-cell volume          =     738.9431 (a.u.)^3
     number of atoms/cell      =            2
     number of atomic types    =            1
     number of electrons       =         8.00
     number of Kohn-Sham states=            8
     kinetic-energy cutoff     =      50.0000  Ry
     charge density cutoff     =     200.0000  Ry
     scf convergence threshold =      1.0E-08
     mixing beta               =       0.7000
     number of iterations used =            8  plain     mixing
     Exchange-correlation= PBE
                           (   1   4   3   4   0   0   0)

     celldm(1)=   4.590000  celldm(2)=   0.000000  celldm(3)=   8.823529
     celldm(4)=   0.000000  celldm(5)=   0.000000  celldm(6)=   0.000000

     crystal axes: (cart. coord. in units of alat)
               a(1) = (   1.000000   0.000000   0.000000 )  
               a(2) = (  -0.500000   0.866025   0.000000 )  
               a(3) = (   0.000000   0.000000   8.823529 )  

     reciprocal axes: (cart. coord. in units 2 pi/alat)
               b(1) = (  1.000000  0.577350  0.000000 )  
               b(2) = (  0.000000  1.154701  0.000000 )  
               b(3) = (  0.000000  0.000000  0.113333 )  


     PseudoPot. # 1 for C  read from file:
     /home/yhkim/qe-6.7/pseudo/ONCV1/1.2/C_ONCV_PBE-1.2.upf
     MD5 check sum: 1a5f83a7b1f58d24996abe00ed223ac6
     Pseudo is Norm-conserving, Zval =  4.0
     Generated using ONCVPSP code by D. R. Hamann
     Using radial grid of  602 points,  4 beta functions with: 
                l(1) =   0
                l(2) =   0
                l(3) =   1
                l(4) =   1

     atomic species   valence    mass     pseudopotential
        C              4.00    12.01070     C ( 1.00)

     24 Sym. Ops., with inversion, found



   Cartesian axes

     site n.     atom                  positions (alat units)
         1           C   tau(   1) = (  -0.0000000   0.5773503   4.4117647  )
         2           C   tau(   2) = (   0.5000000   0.2886751   4.4117647  )

     number of k points=    27  Methfessel-Paxton smearing, width (Ry)=  0.0100
                       cart. coord. in units 2pi/alat
        k(    1) = (   0.0000000   0.0000000   0.0000000), wk =   0.0088889
        k(    2) = (   0.0000000   0.0769800   0.0000000), wk =   0.0533333
        k(    3) = (   0.0000000   0.1539601   0.0000000), wk =   0.0533333
        k(    4) = (   0.0000000   0.2309401   0.0000000), wk =   0.0533333
        k(    5) = (   0.0000000   0.3079201   0.0000000), wk =   0.0533333
        k(    6) = (   0.0000000   0.3849002   0.0000000), wk =   0.0533333
        k(    7) = (   0.0000000   0.4618802   0.0000000), wk =   0.0533333
        k(    8) = (   0.0000000   0.5388603   0.0000000), wk =   0.0533333
        k(    9) = (   0.0666667   0.1154701   0.0000000), wk =   0.0533333
        k(   10) = (   0.0666667   0.1924501   0.0000000), wk =   0.1066667
        k(   11) = (   0.0666667   0.2694301   0.0000000), wk =   0.1066667
        k(   12) = (   0.0666667   0.3464102   0.0000000), wk =   0.1066667
        k(   13) = (   0.0666667   0.4233902   0.0000000), wk =   0.1066667
        k(   14) = (   0.0666667   0.5003702   0.0000000), wk =   0.1066667
        k(   15) = (   0.0666667   0.5773503   0.0000000), wk =   0.0533333
        k(   16) = (   0.1333333   0.2309401   0.0000000), wk =   0.0533333
        k(   17) = (   0.1333333   0.3079201   0.0000000), wk =   0.1066667
        k(   18) = (   0.1333333   0.3849002   0.0000000), wk =   0.1066667
        k(   19) = (   0.1333333   0.4618802   0.0000000), wk =   0.1066667
        k(   20) = (   0.1333333   0.5388603   0.0000000), wk =   0.1066667
        k(   21) = (   0.2000000   0.3464102   0.0000000), wk =   0.0533333
        k(   22) = (   0.2000000   0.4233902   0.0000000), wk =   0.1066667
        k(   23) = (   0.2000000   0.5003702   0.0000000), wk =   0.1066667
        k(   24) = (   0.2000000   0.5773503   0.0000000), wk =   0.0533333
        k(   25) = (   0.2666667   0.4618802   0.0000000), wk =   0.0533333
        k(   26) = (   0.2666667   0.5388603   0.0000000), wk =   0.1066667
        k(   27) = (   0.3333333   0.5773503   0.0000000), wk =   0.0177778

     Dense  grid:    35373 G-vectors     FFT dimensions: (  24,  24, 192)

     Estimated max dynamical RAM per process >       1.60 MB

     Estimated total dynamical RAM >      51.29 MB
 ----2D----2D----2D----2D----2D----2D----2D----2D----2D----2D----2D----2D
  The code is running with the 2D cutoff
  Please refer to:
  Sohier, T., Calandra, M., & Mauri, F. (2017), 
  Density functional perturbation theory for gated two-dimensional heterostructu
 res:
  Theoretical developments and application to flexural phonons in graphene.
  Physical Review B, 96(7), 75448. https://doi.org/10.1103/PhysRevB.96.075448
 ----2D----2D----2D----2D----2D----2D----2D----2D----2D----2D----2D----2D

     Initial potential from superposition of free atoms

     starting charge    7.98607, renormalised to    8.00000

     negative rho (up, down):  1.111E-04 0.000E+00
     Starting wfcs are random

     total cpu time spent up to now is        0.1 secs

     Self-consistent Calculation

     iteration #  1     ecut=    50.00 Ry     beta= 0.70
     Davidson diagonalization with overlap
     ethr =  1.00E-02,  avg # of iterations = 11.9

     negative rho (up, down):  4.129E-08 0.000E+00

     total cpu time spent up to now is        0.5 secs

     total energy              =     -22.75542362 Ry
     estimated scf accuracy    <       0.18928735 Ry

     iteration #  2     ecut=    50.00 Ry     beta= 0.70
     Davidson diagonalization with overlap
     ethr =  2.37E-03,  avg # of iterations =  2.2

     total cpu time spent up to now is        0.6 secs

     total energy              =     -22.78512762 Ry
     estimated scf accuracy    <       0.00218614 Ry

     iteration #  3     ecut=    50.00 Ry     beta= 0.70
     Davidson diagonalization with overlap
     ethr =  2.73E-05,  avg # of iterations = 10.4

     total cpu time spent up to now is        0.8 secs

     total energy              =     -22.78841768 Ry
     estimated scf accuracy    <       0.00015803 Ry

     iteration #  4     ecut=    50.00 Ry     beta= 0.70
     Davidson diagonalization with overlap
     c_bands:  1 eigenvalues not converged
     ethr =  1.98E-06,  avg # of iterations =  6.1

     total cpu time spent up to now is        1.0 secs

     total energy              =     -22.78845384 Ry
     estimated scf accuracy    <       0.00000031 Ry

     iteration #  5     ecut=    50.00 Ry     beta= 0.70
     Davidson diagonalization with overlap
     ethr =  3.93E-09,  avg # of iterations =  4.4

     total cpu time spent up to now is        1.2 secs

     total energy              =     -22.78845684 Ry
     estimated scf accuracy    <       0.00000003 Ry

     iteration #  6     ecut=    50.00 Ry     beta= 0.70
     Davidson diagonalization with overlap
     ethr =  3.41E-10,  avg # of iterations =  2.0

     total cpu time spent up to now is        1.3 secs

     End of self-consistent calculation

          k = 0.0000 0.0000 0.0000 (  4375 PWs)   bands (ev):

   -24.0224 -12.0486  -7.1744  -7.1744  -0.9888  -0.2043   0.5819   0.9372

          k = 0.0000 0.0770 0.0000 (  4389 PWs)   bands (ev):

   -23.9146 -11.9190  -7.6055  -7.4072  -0.8420  -0.0552   0.7318   1.0866

          k = 0.0000 0.1540 0.0000 (  4363 PWs)   bands (ev):

   -23.5921 -11.5302  -8.7484  -7.9941  -0.4015   0.3916   1.1818   1.5345

          k = 0.0000 0.2309 0.0000 (  4387 PWs)   bands (ev):

   -23.0575 -10.8890 -10.3320  -8.7314   0.3323   1.1340   1.9316   2.2791

          k = 0.0000 0.3079 0.0000 (  4413 PWs)   bands (ev):

   -22.3148 -12.1059 -10.0126  -9.4469   1.3572   2.1457   2.9599   2.9799

          k = 0.0000 0.3849 0.0000 (  4433 PWs)   bands (ev):

   -21.3710 -13.9154 -10.0414  -8.9350   0.9888   2.6661   3.5318   4.0142

          k = 0.0000 0.4619 0.0000 (  4439 PWs)   bands (ev):

   -20.2398 -15.6604 -10.4601  -7.7419  -0.8456   3.7908   4.3176   5.1470

          k = 0.0000 0.5389 0.0000 (  4433 PWs)   bands (ev):

   -18.9847 -17.2321 -10.6758  -6.7389  -2.1893   3.7191   6.1577   7.0372

          k = 0.0667 0.1155 0.0000 (  4361 PWs)   bands (ev):

   -23.6993 -11.6590  -8.3358  -7.8726  -0.5482   0.2428   1.0318   1.3853

          k = 0.0667 0.1925 0.0000 (  4379 PWs)   bands (ev):

   -23.2710 -11.1444  -9.6092  -8.6277   0.0392   0.8377   1.6319   1.9819

          k = 0.0667 0.2694 0.0000 (  4397 PWs)   bands (ev):

   -22.6324 -11.2279 -10.3847  -9.4142   0.9193   1.7247   2.5318   2.8696

          k = 0.0667 0.3464 0.0000 (  4424 PWs)   bands (ev):

   -21.7892 -12.9895 -10.0991  -9.4029   1.8692   2.0887   2.9437   3.7280

          k = 0.0667 0.4234 0.0000 (  4434 PWs)   bands (ev):

   -20.7509 -14.7524 -10.6198  -8.2507  -0.0004   3.5342   4.4034   4.4048

          k = 0.0667 0.5004 0.0000 (  4441 PWs)   bands (ev):

   -19.5431 -16.4192 -10.9428  -7.0845  -1.6451   4.2271   5.3040   6.1508

          k = 0.0667 0.5774 0.0000 (  4412 PWs)   bands (ev):

   -18.5093 -17.6085 -11.0515  -6.4651  -2.4277   4.1837   7.2096   7.3629

          k = 0.1333 0.2309 0.0000 (  4391 PWs)   bands (ev):

   -22.7387 -10.7250 -10.5091  -9.6303   0.7735   1.5795   2.3824   2.7266

          k = 0.1333 0.3079 0.0000 (  4408 PWs)   bands (ev):

   -21.9996 -12.1501 -10.5668  -9.6408   1.7991   2.4439   2.6391   3.4321

          k = 0.1333 0.3849 0.0000 (  4425 PWs)   bands (ev):

   -21.0615 -13.7853 -11.2579  -8.5692   0.7079   3.1113   3.9394   4.7791

          k = 0.1333 0.4619 0.0000 (  4431 PWs)   bands (ev):

   -19.9401 -15.4435 -11.7135  -7.3767  -1.0013   4.6963   5.5263   5.5979

          k = 0.1333 0.5389 0.0000 (  4419 PWs)   bands (ev):

   -18.7015 -16.9683 -11.9415  -6.3513  -2.3028   5.4754   6.5724   7.2787

          k = 0.2000 0.3464 0.0000 (  4413 PWs)   bands (ev):

   -21.1657 -13.1704 -11.7871  -8.6774   1.0005   2.9673   3.7774   4.6315

          k = 0.2000 0.4234 0.0000 (  4419 PWs)   bands (ev):

   -20.1426 -14.4895 -12.6274  -7.5390  -0.5448   4.4158   5.1915   6.1274

          k = 0.2000 0.5004 0.0000 (  4418 PWs)   bands (ev):

   -18.9605 -15.9680 -13.0566  -6.3525  -1.9996   6.1229   6.6773   7.2892

          k = 0.2000 0.5774 0.0000 (  4419 PWs)   bands (ev):

   -17.9640 -17.0801 -13.1896  -5.6727  -2.7741   7.2145   7.3504   7.9456

          k = 0.2667 0.4619 0.0000 (  4417 PWs)   bands (ev):

   -19.0544 -15.2648 -13.8096  -6.3677  -1.8409   5.9823   6.4344   7.7278

          k = 0.2667 0.5389 0.0000 (  4405 PWs)   bands (ev):

   -17.8698 -16.3555 -14.3634  -5.2399  -3.0252   6.7935   7.7416   8.9504

          k = 0.3333 0.5774 0.0000 (  4395 PWs)   bands (ev):

   -16.8769 -16.8769 -15.0461  -4.1107  -4.1107   6.5822   9.0722   9.0725

     the Fermi energy is    -4.1107 ev

!    total energy              =     -22.78845684 Ry
     estimated scf accuracy    <          3.5E-10 Ry
     smearing contrib. (-TS)   =      -0.00005015 Ry
     internal energy E=F+TS    =     -22.78840669 Ry

     The total energy is F=E-TS. E is the sum of the following terms:
     one-electron contribution =    -398.77443906 Ry
     hartree contribution      =     200.03684376 Ry
     xc contribution           =      -7.07534615 Ry
     ewald contribution        =     183.02453476 Ry

     convergence has been achieved in   6 iterations

     Forces acting on atoms (cartesian axes, Ry/au):

     atom    1 type  1   force =     0.00000000    0.00000000    0.00000000
     atom    2 type  1   force =    -0.00000000   -0.00000000    0.00000000

     Total force =     0.000000     Total SCF correction =     0.000000


     Computing stress (Cartesian axis) and pressure

          total   stress  (Ry/bohr**3)                   (kbar)     P=        4.07
   0.00009748   0.00000000   0.00000000           14.34        0.00        0.00
   0.00000000   0.00009748  -0.00000000            0.00       14.34       -0.00
   0.00000000  -0.00000000  -0.00011185            0.00       -0.00      -16.45


     Writing output data file ./work/LiC459.save/
 
     init_run     :      0.07s CPU      0.08s WALL (       1 calls)
     electrons    :      1.07s CPU      1.18s WALL (       1 calls)
     forces       :      0.01s CPU      0.01s WALL (       1 calls)
     stress       :      0.02s CPU      0.02s WALL (       1 calls)

     Called by init_run:
     wfcinit      :      0.05s CPU      0.06s WALL (       1 calls)
     potinit      :      0.00s CPU      0.01s WALL (       1 calls)
     hinit0       :      0.00s CPU      0.00s WALL (       1 calls)

     Called by electrons:
     c_bands      :      0.96s CPU      1.05s WALL (       6 calls)
     sum_band     :      0.10s CPU      0.10s WALL (       6 calls)
     v_of_rho     :      0.01s CPU      0.02s WALL (       7 calls)
     mix_rho      :      0.00s CPU      0.00s WALL (       6 calls)

     Called by c_bands:
     init_us_2    :      0.01s CPU      0.01s WALL (     405 calls)
     cegterg      :      0.94s CPU      1.03s WALL (     162 calls)

     Called by *egterg:
     cdiaghg      :      0.10s CPU      0.11s WALL (    1159 calls)
     h_psi        :      0.79s CPU      0.87s WALL (    1186 calls)
     g_psi        :      0.00s CPU      0.00s WALL (     997 calls)

     Called by h_psi:
     h_psi:calbec :      0.03s CPU      0.03s WALL (    1186 calls)
     vloc_psi     :      0.74s CPU      0.81s WALL (    1186 calls)
     add_vuspsi   :      0.01s CPU      0.01s WALL (    1186 calls)

     General routines
     calbec       :      0.04s CPU      0.04s WALL (    1321 calls)
     fft          :      0.01s CPU      0.01s WALL (      77 calls)
     ffts         :      0.00s CPU      0.00s WALL (       6 calls)
     fftw         :      0.78s CPU      0.85s WALL (   13204 calls)
 
     Parallel routines
     fft_scatt_xy :      0.06s CPU      0.06s WALL (   13287 calls)
     fft_scatt_yz :      0.40s CPU      0.44s WALL (   13287 calls)
 
     PWSCF        :      1.21s CPU      1.54s WALL

 
   This run was terminated on:  11: 0:50  22Jan2024            

=------------------------------------------------------------------------------=
   JOB DONE.
=------------------------------------------------------------------------------=
