
     Program PWSCF v.6.7MaX starts on 22Jan2024 at 11: 1:53 

     This program is part of the open-source Quantum ESPRESSO suite
     for quantum simulation of materials; please cite
         "P. Giannozzi et al., J. Phys.:Condens. Matter 21 395502 (2009);
         "P. Giannozzi et al., J. Phys.:Condens. Matter 29 465901 (2017);
          URL http://www.quantum-espresso.org", 
     in publications or presentations arising from this work. More details at
     http://www.quantum-espresso.org/quote

     Parallel version (MPI), running on    32 processors

     MPI processes distributed on     1 nodes
     R & G space division:  proc/nbgrp/npool/nimage =      32
     Waiting for input...
     Reading input from standard input
Warning: card &CELL ignored
Warning: card  CELL_DYNAMICS = 'BFGS', ignored
Warning: card  PRESS = 0.0, ignored
Warning: card  PRESS_CONV_THR = 1D-3, ignored
Warning: card  CELL_DOFREE='2DXY' ignored
Warning: card / ignored

     Current dimensions of program PWSCF are:
     Max number of different atomic species (ntypx) = 10
     Max number of k-points (npk) =  40000
     Max angular momentum in pseudopotentials (lmaxx) =  3
     Message from routine read_pp_mesh:
     mesh size missing, using the one in header

     Subspace diagonalization in iterative solution of the eigenvalue problem:
     a serial algorithm will be used

 
     Parallelization info
     --------------------
     sticks:   dense  smooth     PW     G-vecs:    dense   smooth      PW
     Min           9       9      3                 1195     1195     212
     Max          10      10      5                 1256     1256     227
     Sum         313     313    109                39627    39627    7087
 


     bravais-lattice index     =            4
     lattice parameter (alat)  =       4.8900  a.u.
     unit-cell volume          =     838.6937 (a.u.)^3
     number of atoms/cell      =            2
     number of atomic types    =            1
     number of electrons       =         8.00
     number of Kohn-Sham states=            8
     kinetic-energy cutoff     =      50.0000  Ry
     charge density cutoff     =     200.0000  Ry
     scf convergence threshold =      1.0E-08
     mixing beta               =       0.7000
     number of iterations used =            8  plain     mixing
     Exchange-correlation= PBE
                           (   1   4   3   4   0   0   0)

     celldm(1)=   4.890000  celldm(2)=   0.000000  celldm(3)=   8.282209
     celldm(4)=   0.000000  celldm(5)=   0.000000  celldm(6)=   0.000000

     crystal axes: (cart. coord. in units of alat)
               a(1) = (   1.000000   0.000000   0.000000 )  
               a(2) = (  -0.500000   0.866025   0.000000 )  
               a(3) = (   0.000000   0.000000   8.282209 )  

     reciprocal axes: (cart. coord. in units 2 pi/alat)
               b(1) = (  1.000000  0.577350  0.000000 )  
               b(2) = (  0.000000  1.154701  0.000000 )  
               b(3) = (  0.000000  0.000000  0.120741 )  


     PseudoPot. # 1 for C  read from file:
     /home/yhkim/qe-6.7/pseudo/ONCV1/1.2/C_ONCV_PBE-1.2.upf
     MD5 check sum: 1a5f83a7b1f58d24996abe00ed223ac6
     Pseudo is Norm-conserving, Zval =  4.0
     Generated using ONCVPSP code by D. R. Hamann
     Using radial grid of  602 points,  4 beta functions with: 
                l(1) =   0
                l(2) =   0
                l(3) =   1
                l(4) =   1

     atomic species   valence    mass     pseudopotential
        C              4.00    12.01070     C ( 1.00)

     24 Sym. Ops., with inversion, found



   Cartesian axes

     site n.     atom                  positions (alat units)
         1           C   tau(   1) = (  -0.0000000   0.5773503   4.1411043  )
         2           C   tau(   2) = (   0.5000000   0.2886751   4.1411043  )

     number of k points=    27  Methfessel-Paxton smearing, width (Ry)=  0.0100
                       cart. coord. in units 2pi/alat
        k(    1) = (   0.0000000   0.0000000   0.0000000), wk =   0.0088889
        k(    2) = (   0.0000000   0.0769800   0.0000000), wk =   0.0533333
        k(    3) = (   0.0000000   0.1539601   0.0000000), wk =   0.0533333
        k(    4) = (   0.0000000   0.2309401   0.0000000), wk =   0.0533333
        k(    5) = (   0.0000000   0.3079201   0.0000000), wk =   0.0533333
        k(    6) = (   0.0000000   0.3849002   0.0000000), wk =   0.0533333
        k(    7) = (   0.0000000   0.4618802   0.0000000), wk =   0.0533333
        k(    8) = (   0.0000000   0.5388603   0.0000000), wk =   0.0533333
        k(    9) = (   0.0666667   0.1154701   0.0000000), wk =   0.0533333
        k(   10) = (   0.0666667   0.1924501   0.0000000), wk =   0.1066667
        k(   11) = (   0.0666667   0.2694301   0.0000000), wk =   0.1066667
        k(   12) = (   0.0666667   0.3464102   0.0000000), wk =   0.1066667
        k(   13) = (   0.0666667   0.4233902   0.0000000), wk =   0.1066667
        k(   14) = (   0.0666667   0.5003702   0.0000000), wk =   0.1066667
        k(   15) = (   0.0666667   0.5773503   0.0000000), wk =   0.0533333
        k(   16) = (   0.1333333   0.2309401   0.0000000), wk =   0.0533333
        k(   17) = (   0.1333333   0.3079201   0.0000000), wk =   0.1066667
        k(   18) = (   0.1333333   0.3849002   0.0000000), wk =   0.1066667
        k(   19) = (   0.1333333   0.4618802   0.0000000), wk =   0.1066667
        k(   20) = (   0.1333333   0.5388603   0.0000000), wk =   0.1066667
        k(   21) = (   0.2000000   0.3464102   0.0000000), wk =   0.0533333
        k(   22) = (   0.2000000   0.4233902   0.0000000), wk =   0.1066667
        k(   23) = (   0.2000000   0.5003702   0.0000000), wk =   0.1066667
        k(   24) = (   0.2000000   0.5773503   0.0000000), wk =   0.0533333
        k(   25) = (   0.2666667   0.4618802   0.0000000), wk =   0.0533333
        k(   26) = (   0.2666667   0.5388603   0.0000000), wk =   0.1066667
        k(   27) = (   0.3333333   0.5773503   0.0000000), wk =   0.0177778

     Dense  grid:    39627 G-vectors     FFT dimensions: (  24,  24, 192)

     Estimated max dynamical RAM per process >       1.74 MB

     Estimated total dynamical RAM >      55.71 MB
 ----2D----2D----2D----2D----2D----2D----2D----2D----2D----2D----2D----2D
  The code is running with the 2D cutoff
  Please refer to:
  Sohier, T., Calandra, M., & Mauri, F. (2017), 
  Density functional perturbation theory for gated two-dimensional heterostructu
 res:
  Theoretical developments and application to flexural phonons in graphene.
  Physical Review B, 96(7), 75448. https://doi.org/10.1103/PhysRevB.96.075448
 ----2D----2D----2D----2D----2D----2D----2D----2D----2D----2D----2D----2D

     Initial potential from superposition of free atoms

     starting charge    7.98607, renormalised to    8.00000

     negative rho (up, down):  1.215E-04 0.000E+00
     Starting wfcs are random

     total cpu time spent up to now is        0.1 secs

     Self-consistent Calculation

     iteration #  1     ecut=    50.00 Ry     beta= 0.70
     Davidson diagonalization with overlap
     ethr =  1.00E-02,  avg # of iterations = 11.8

     negative rho (up, down):  1.234E-07 0.000E+00

     total cpu time spent up to now is        0.5 secs

     total energy              =     -22.74792586 Ry
     estimated scf accuracy    <       0.10599922 Ry

     iteration #  2     ecut=    50.00 Ry     beta= 0.70
     Davidson diagonalization with overlap
     ethr =  1.32E-03,  avg # of iterations =  2.4

     total cpu time spent up to now is        0.7 secs

     total energy              =     -22.76638397 Ry
     estimated scf accuracy    <       0.00198808 Ry

     iteration #  3     ecut=    50.00 Ry     beta= 0.70
     Davidson diagonalization with overlap
     c_bands:  1 eigenvalues not converged
     ethr =  2.49E-05,  avg # of iterations =  9.4

     total cpu time spent up to now is        1.0 secs

     total energy              =     -22.76950411 Ry
     estimated scf accuracy    <       0.00012665 Ry

     iteration #  4     ecut=    50.00 Ry     beta= 0.70
     Davidson diagonalization with overlap
     ethr =  1.58E-06,  avg # of iterations =  6.4

     total cpu time spent up to now is        1.2 secs

     total energy              =     -22.76954286 Ry
     estimated scf accuracy    <       0.00000023 Ry

     iteration #  5     ecut=    50.00 Ry     beta= 0.70
     Davidson diagonalization with overlap
     ethr =  2.86E-09,  avg # of iterations =  4.7

     total cpu time spent up to now is        1.4 secs

     total energy              =     -22.76954544 Ry
     estimated scf accuracy    <       0.00000003 Ry

     iteration #  6     ecut=    50.00 Ry     beta= 0.70
     Davidson diagonalization with overlap
     ethr =  3.13E-10,  avg # of iterations =  2.0

     total cpu time spent up to now is        1.5 secs

     End of self-consistent calculation

          k = 0.0000 0.0000 0.0000 (  5083 PWs)   bands (ev):

   -23.0482 -11.3317  -7.7314  -7.7314  -0.9496  -0.1988   0.5994   0.9523

          k = 0.0000 0.0770 0.0000 (  5097 PWs)   bands (ev):

   -22.9521 -11.2202  -8.1397  -7.9233  -0.8199  -0.0679   0.7316   1.0836

          k = 0.0000 0.1540 0.0000 (  5077 PWs)   bands (ev):

   -22.6647 -10.8880  -9.2070  -8.4082  -0.4309   0.3241   1.1281   1.4769

          k = 0.0000 0.2309 0.0000 (  5035 PWs)   bands (ev):

   -22.1881 -10.6542 -10.3416  -9.0208   0.2166   0.9743   1.7879   2.1272

          k = 0.0000 0.3079 0.0000 (  5020 PWs)   bands (ev):

   -21.5273 -12.2588  -9.6195  -9.5967   1.1196   1.2866   1.9163   2.0661

          k = 0.0000 0.3849 0.0000 (  5004 PWs)   bands (ev):

   -20.6915 -13.8805 -10.1205  -8.6836  -0.2724   1.7363   2.2909   3.0671

          k = 0.0000 0.4619 0.0000 (  4986 PWs)   bands (ev):

   -19.7042 -15.4232 -10.4761  -7.6845  -1.7671   1.5085   3.6938   4.4807

          k = 0.0000 0.5389 0.0000 (  4928 PWs)   bands (ev):

   -18.6843 -16.7276 -10.6563  -6.8620  -2.8524   1.3876   5.3335   6.1176

          k = 0.0667 0.1155 0.0000 (  5083 PWs)   bands (ev):

   -22.7604 -10.9984  -8.8325  -8.3047  -0.5605   0.1935   0.9959   1.3459

          k = 0.0667 0.1925 0.0000 (  5051 PWs)   bands (ev):

   -22.3783 -10.5585 -10.0126  -8.9340  -0.0421   0.7154   1.5246   1.8695

          k = 0.0667 0.2694 0.0000 (  5024 PWs)   bands (ev):

   -21.8095 -11.4824  -9.9119  -9.5994   0.7340   1.4836   1.9622   2.3149

          k = 0.0667 0.3464 0.0000 (  5017 PWs)   bands (ev):

   -21.0607 -13.0648 -10.1840  -9.0786   0.4349   1.7620   2.3364   2.5443

          k = 0.0667 0.4234 0.0000 (  4993 PWs)   bands (ev):

   -20.1460 -14.6334 -10.6294  -8.1078  -1.0936   2.0481   3.0565   3.8307

          k = 0.0667 0.5004 0.0000 (  4973 PWs)   bands (ev):

   -19.1117 -16.0799 -10.9062  -7.1390  -2.4294   1.8707   4.5791   5.3495

          k = 0.0667 0.5774 0.0000 (  4952 PWs)   bands (ev):

   -18.3661 -16.9656 -11.0001  -6.6368  -3.0581   1.8096   6.2325   6.4031

          k = 0.1333 0.2309 0.0000 (  5031 PWs)   bands (ev):

   -21.9040 -11.0682 -10.0174  -9.7674   0.6052   1.3656   2.1854   2.1943

          k = 0.1333 0.3079 0.0000 (  5014 PWs)   bands (ev):

   -21.2467 -12.3666 -10.5708  -9.2792   0.8750   1.5087   2.2725   3.1086

          k = 0.1333 0.3849 0.0000 (  5009 PWs)   bands (ev):

   -20.4166 -13.8162 -11.1858  -8.3729  -0.5528   2.6620   3.3567   3.4260

          k = 0.1333 0.4619 0.0000 (  4973 PWs)   bands (ev):

   -19.4374 -15.2683 -11.5931  -7.3729  -1.9462   3.1160   4.0726   4.8031

          k = 0.1333 0.5389 0.0000 (  4975 PWs)   bands (ev):

   -18.4269 -16.5318 -11.7976  -6.5306  -3.0015   2.9947   5.6876   6.2820

          k = 0.2000 0.3464 0.0000 (  5019 PWs)   bands (ev):

   -20.5076 -13.3534 -11.5861  -8.4631  -0.3392   2.5366   3.2866   4.1643

          k = 0.2000 0.4234 0.0000 (  4999 PWs)   bands (ev):

   -19.6076 -14.5266 -12.3294  -7.5044  -1.6162   3.8075   4.5114   4.8418

          k = 0.2000 0.5004 0.0000 (  4992 PWs)   bands (ev):

   -18.5936 -15.7812 -12.7399  -6.5161  -2.8123   4.6379   5.3170   5.7703

          k = 0.2000 0.5774 0.0000 (  4980 PWs)   bands (ev):

   -17.8518 -16.6158 -12.8691  -5.9603  -3.4405   4.5770   6.3336   6.7932

          k = 0.2667 0.4619 0.0000 (  5012 PWs)   bands (ev):

   -18.6615 -15.3145 -13.2753  -6.5230  -2.7115   5.1699   5.5713   6.2467

          k = 0.2667 0.5389 0.0000 (  5004 PWs)   bands (ev):

   -17.6753 -16.2353 -13.7569  -5.5846  -3.7020   5.9246   6.2085   6.6693

          k = 0.3333 0.5774 0.0000 (  5010 PWs)   bands (ev):

   -16.8294 -16.8294 -14.2028  -4.6307  -4.6307   5.7840   7.0813   7.0814

     the Fermi energy is    -4.6307 ev

!    total energy              =     -22.76954544 Ry
     estimated scf accuracy    <          1.1E-09 Ry
     smearing contrib. (-TS)   =      -0.00005015 Ry
     internal energy E=F+TS    =     -22.76949529 Ry

     The total energy is F=E-TS. E is the sum of the following terms:
     one-electron contribution =    -350.87284101 Ry
     hartree contribution      =     175.96786798 Ry
     xc contribution           =      -6.81020395 Ry
     ewald contribution        =     158.94568168 Ry

     convergence has been achieved in   6 iterations

     Forces acting on atoms (cartesian axes, Ry/au):

     atom    1 type  1   force =     0.00000000    0.00000000    0.00000000
     atom    2 type  1   force =     0.00000000    0.00000000    0.00000000

     Total force =     0.000000     Total SCF correction =     0.000000


     Computing stress (Cartesian axis) and pressure

          total   stress  (Ry/bohr**3)                   (kbar)     P=      -63.32
  -0.00059891   0.00000000   0.00000000          -88.10        0.00        0.00
   0.00000000  -0.00059891   0.00000000            0.00      -88.10        0.00
   0.00000000   0.00000000  -0.00009360            0.00        0.00      -13.77


     Writing output data file ./work/LiC489.save/
 
     init_run     :      0.07s CPU      0.09s WALL (       1 calls)
     electrons    :      1.30s CPU      1.39s WALL (       1 calls)
     forces       :      0.01s CPU      0.01s WALL (       1 calls)
     stress       :      0.02s CPU      0.02s WALL (       1 calls)

     Called by init_run:
     wfcinit      :      0.05s CPU      0.07s WALL (       1 calls)
     potinit      :      0.00s CPU      0.01s WALL (       1 calls)
     hinit0       :      0.00s CPU      0.00s WALL (       1 calls)

     Called by electrons:
     c_bands      :      1.17s CPU      1.24s WALL (       6 calls)
     sum_band     :      0.12s CPU      0.12s WALL (       6 calls)
     v_of_rho     :      0.01s CPU      0.01s WALL (       7 calls)
     mix_rho      :      0.00s CPU      0.00s WALL (       6 calls)

     Called by c_bands:
     init_us_2    :      0.01s CPU      0.01s WALL (     405 calls)
     cegterg      :      1.15s CPU      1.21s WALL (     162 calls)

     Called by *egterg:
     cdiaghg      :      0.11s CPU      0.11s WALL (    1155 calls)
     h_psi        :      0.99s CPU      1.06s WALL (    1182 calls)
     g_psi        :      0.00s CPU      0.00s WALL (     993 calls)

     Called by h_psi:
     h_psi:calbec :      0.04s CPU      0.04s WALL (    1182 calls)
     vloc_psi     :      0.94s CPU      0.99s WALL (    1182 calls)
     add_vuspsi   :      0.01s CPU      0.01s WALL (    1182 calls)

     General routines
     calbec       :      0.04s CPU      0.05s WALL (    1317 calls)
     fft          :      0.01s CPU      0.01s WALL (      77 calls)
     ffts         :      0.00s CPU      0.00s WALL (       6 calls)
     fftw         :      0.99s CPU      1.05s WALL (   13356 calls)
 
     Parallel routines
     fft_scatt_xy :      0.06s CPU      0.07s WALL (   13439 calls)
     fft_scatt_yz :      0.59s CPU      0.63s WALL (   13439 calls)
 
     PWSCF        :      1.45s CPU      1.80s WALL

 
   This run was terminated on:  11: 1:55  22Jan2024            

=------------------------------------------------------------------------------=
   JOB DONE.
=------------------------------------------------------------------------------=
