
     Program PWSCF v.6.7MaX starts on 22Jan2024 at 10:37:38 

     This program is part of the open-source Quantum ESPRESSO suite
     for quantum simulation of materials; please cite
         "P. Giannozzi et al., J. Phys.:Condens. Matter 21 395502 (2009);
         "P. Giannozzi et al., J. Phys.:Condens. Matter 29 465901 (2017);
          URL http://www.quantum-espresso.org", 
     in publications or presentations arising from this work. More details at
     http://www.quantum-espresso.org/quote

     Parallel version (MPI), running on    32 processors

     MPI processes distributed on     1 nodes
     R & G space division:  proc/nbgrp/npool/nimage =      32
     Waiting for input...
     Reading input from standard input
Warning: card &CELL ignored
Warning: card  CELL_DYNAMICS = 'BFGS', ignored
Warning: card  PRESS = 0.0, ignored
Warning: card  PRESS_CONV_THR = 1D-3, ignored
Warning: card  CELL_DOFREE='2DXY' ignored
Warning: card / ignored

     Current dimensions of program PWSCF are:
     Max number of different atomic species (ntypx) = 10
     Max number of k-points (npk) =  40000
     Max angular momentum in pseudopotentials (lmaxx) =  3
     Message from routine read_pp_mesh:
     mesh size missing, using the one in header

     Subspace diagonalization in iterative solution of the eigenvalue problem:
     a serial algorithm will be used

 
     Parallelization info
     --------------------
     sticks:   dense  smooth     PW     G-vecs:    dense   smooth      PW
     Min           7       7      2                  869      869     152
     Max           8       8      3                  895      895     183
     Sum         235     235     73                28161    28161    5217
 


     bravais-lattice index     =            4
     lattice parameter (alat)  =       4.1000  a.u.
     unit-cell volume          =     589.5944 (a.u.)^3
     number of atoms/cell      =            2
     number of atomic types    =            1
     number of electrons       =         8.00
     number of Kohn-Sham states=            8
     kinetic-energy cutoff     =      50.0000  Ry
     charge density cutoff     =     200.0000  Ry
     scf convergence threshold =      1.0E-08
     mixing beta               =       0.7000
     number of iterations used =            8  plain     mixing
     Exchange-correlation= PBE
                           (   1   4   3   4   0   0   0)

     celldm(1)=   4.100000  celldm(2)=   0.000000  celldm(3)=   9.878049
     celldm(4)=   0.000000  celldm(5)=   0.000000  celldm(6)=   0.000000

     crystal axes: (cart. coord. in units of alat)
               a(1) = (   1.000000   0.000000   0.000000 )  
               a(2) = (  -0.500000   0.866025   0.000000 )  
               a(3) = (   0.000000   0.000000   9.878049 )  

     reciprocal axes: (cart. coord. in units 2 pi/alat)
               b(1) = (  1.000000  0.577350  0.000000 )  
               b(2) = (  0.000000  1.154701  0.000000 )  
               b(3) = (  0.000000  0.000000  0.101235 )  


     PseudoPot. # 1 for C  read from file:
     /home/yhkim/qe-6.7/pseudo/ONCV1/1.2/C_ONCV_PBE-1.2.upf
     MD5 check sum: 1a5f83a7b1f58d24996abe00ed223ac6
     Pseudo is Norm-conserving, Zval =  4.0
     Generated using ONCVPSP code by D. R. Hamann
     Using radial grid of  602 points,  4 beta functions with: 
                l(1) =   0
                l(2) =   0
                l(3) =   1
                l(4) =   1

     atomic species   valence    mass     pseudopotential
        C              4.00    12.01070     C ( 1.00)

     24 Sym. Ops., with inversion, found



   Cartesian axes

     site n.     atom                  positions (alat units)
         1           C   tau(   1) = (  -0.0000000   0.5773503   4.9390244  )
         2           C   tau(   2) = (   0.5000000   0.2886751   4.9390244  )

     number of k points=    27  Methfessel-Paxton smearing, width (Ry)=  0.0100
                       cart. coord. in units 2pi/alat
        k(    1) = (   0.0000000   0.0000000   0.0000000), wk =   0.0088889
        k(    2) = (   0.0000000   0.0769800   0.0000000), wk =   0.0533333
        k(    3) = (   0.0000000   0.1539601   0.0000000), wk =   0.0533333
        k(    4) = (   0.0000000   0.2309401   0.0000000), wk =   0.0533333
        k(    5) = (   0.0000000   0.3079201   0.0000000), wk =   0.0533333
        k(    6) = (   0.0000000   0.3849002   0.0000000), wk =   0.0533333
        k(    7) = (   0.0000000   0.4618802   0.0000000), wk =   0.0533333
        k(    8) = (   0.0000000   0.5388603   0.0000000), wk =   0.0533333
        k(    9) = (   0.0666667   0.1154701   0.0000000), wk =   0.0533333
        k(   10) = (   0.0666667   0.1924501   0.0000000), wk =   0.1066667
        k(   11) = (   0.0666667   0.2694301   0.0000000), wk =   0.1066667
        k(   12) = (   0.0666667   0.3464102   0.0000000), wk =   0.1066667
        k(   13) = (   0.0666667   0.4233902   0.0000000), wk =   0.1066667
        k(   14) = (   0.0666667   0.5003702   0.0000000), wk =   0.1066667
        k(   15) = (   0.0666667   0.5773503   0.0000000), wk =   0.0533333
        k(   16) = (   0.1333333   0.2309401   0.0000000), wk =   0.0533333
        k(   17) = (   0.1333333   0.3079201   0.0000000), wk =   0.1066667
        k(   18) = (   0.1333333   0.3849002   0.0000000), wk =   0.1066667
        k(   19) = (   0.1333333   0.4618802   0.0000000), wk =   0.1066667
        k(   20) = (   0.1333333   0.5388603   0.0000000), wk =   0.1066667
        k(   21) = (   0.2000000   0.3464102   0.0000000), wk =   0.0533333
        k(   22) = (   0.2000000   0.4233902   0.0000000), wk =   0.1066667
        k(   23) = (   0.2000000   0.5003702   0.0000000), wk =   0.1066667
        k(   24) = (   0.2000000   0.5773503   0.0000000), wk =   0.0533333
        k(   25) = (   0.2666667   0.4618802   0.0000000), wk =   0.0533333
        k(   26) = (   0.2666667   0.5388603   0.0000000), wk =   0.1066667
        k(   27) = (   0.3333333   0.5773503   0.0000000), wk =   0.0177778

     Dense  grid:    28161 G-vectors     FFT dimensions: (  20,  20, 192)

     Estimated max dynamical RAM per process >       1.32 MB

     Estimated total dynamical RAM >      42.27 MB
 ----2D----2D----2D----2D----2D----2D----2D----2D----2D----2D----2D----2D
  The code is running with the 2D cutoff
  Please refer to:
  Sohier, T., Calandra, M., & Mauri, F. (2017), 
  Density functional perturbation theory for gated two-dimensional heterostructu
 res:
  Theoretical developments and application to flexural phonons in graphene.
  Physical Review B, 96(7), 75448. https://doi.org/10.1103/PhysRevB.96.075448
 ----2D----2D----2D----2D----2D----2D----2D----2D----2D----2D----2D----2D

     Initial potential from superposition of free atoms

     starting charge    7.98607, renormalised to    8.00000

     negative rho (up, down):  1.058E-04 0.000E+00
     Starting wfcs are random

     total cpu time spent up to now is        0.1 secs

     Self-consistent Calculation

     iteration #  1     ecut=    50.00 Ry     beta= 0.70
     Davidson diagonalization with overlap
     ethr =  1.00E-02,  avg # of iterations = 12.0

     negative rho (up, down):  2.319E-07 0.000E+00

     total cpu time spent up to now is        0.5 secs

     total energy              =     -22.51980427 Ry
     estimated scf accuracy    <       0.45651530 Ry

     iteration #  2     ecut=    50.00 Ry     beta= 0.70
     Davidson diagonalization with overlap
     ethr =  5.71E-03,  avg # of iterations =  2.1

     negative rho (up, down):  1.320E-08 0.000E+00

     total cpu time spent up to now is        0.7 secs

     total energy              =     -22.58931563 Ry
     estimated scf accuracy    <       0.00276515 Ry

     iteration #  3     ecut=    50.00 Ry     beta= 0.70
     Davidson diagonalization with overlap
     ethr =  3.46E-05,  avg # of iterations = 10.9

     total cpu time spent up to now is        0.9 secs

     total energy              =     -22.59059693 Ry
     estimated scf accuracy    <       0.00018203 Ry

     iteration #  4     ecut=    50.00 Ry     beta= 0.70
     Davidson diagonalization with overlap
     c_bands:  1 eigenvalues not converged
     ethr =  2.28E-06,  avg # of iterations =  5.2

     total cpu time spent up to now is        1.1 secs

     total energy              =     -22.59063306 Ry
     estimated scf accuracy    <       0.00000199 Ry

     iteration #  5     ecut=    50.00 Ry     beta= 0.70
     Davidson diagonalization with overlap
     c_bands:  1 eigenvalues not converged
     ethr =  2.49E-08,  avg # of iterations =  4.5

     total cpu time spent up to now is        1.3 secs

     total energy              =     -22.59063567 Ry
     estimated scf accuracy    <       0.00000011 Ry

     iteration #  6     ecut=    50.00 Ry     beta= 0.70
     Davidson diagonalization with overlap
     ethr =  1.38E-09,  avg # of iterations =  2.0

     total cpu time spent up to now is        1.4 secs

     End of self-consistent calculation

          k = 0.0000 0.0000 0.0000 (  3529 PWs)   bands (ev):

   -25.7681 -13.5350  -5.6719  -1.0431  -0.2132   0.5530   0.9075   2.2299

          k = 0.0000 0.0770 0.0000 (  3556 PWs)   bands (ev):

   -25.6392 -13.3637  -6.1919  -6.0137  -0.8603  -0.0254   0.7408   1.0956

          k = 0.0000 0.1540 0.0000 (  3554 PWs)   bands (ev):

   -25.2532 -12.8559  -7.5567  -6.8410  -0.3102   0.5375   1.3048   1.6596

          k = 0.0000 0.2309 0.0000 (  3556 PWs)   bands (ev):

   -24.6126 -12.0181  -9.4417  -7.8531   0.6079   1.4739   2.2452   2.5981

          k = 0.0000 0.3079 0.0000 (  3556 PWs)   bands (ev):

   -23.7220 -11.5607 -10.8652  -8.8207   1.8924   2.7764   3.5619   3.9032

          k = 0.0000 0.3849 0.0000 (  3536 PWs)   bands (ev):

   -22.5877 -13.7283  -9.6130  -9.4338   3.5400   3.5557   4.5697   5.2545

          k = 0.0000 0.4619 0.0000 (  3498 PWs)   bands (ev):

   -21.2205 -15.8247 -10.1685  -7.8237   1.0547   5.5434   6.5552   7.3181

          k = 0.0000 0.5389 0.0000 (  3506 PWs)   bands (ev):

   -19.6504 -17.7789 -10.4520  -6.4185  -0.8548   7.8694   8.7784   8.9637

          k = 0.0667 0.1155 0.0000 (  3541 PWs)   bands (ev):

   -25.3817 -13.0246  -7.0490  -6.6658  -0.4935   0.3500   1.1168   1.4717

          k = 0.0667 0.1925 0.0000 (  3550 PWs)   bands (ev):

   -24.8685 -12.3514  -8.5521  -7.7047   0.2416   1.0998   1.8692   2.2231

          k = 0.0667 0.2694 0.0000 (  3552 PWs)   bands (ev):

   -24.1029 -11.3549 -10.4929  -8.7458   1.3440   2.2212   2.9982   3.3474

          k = 0.0667 0.3464 0.0000 (  3538 PWs)   bands (ev):

   -23.0906 -12.6085 -10.0584  -9.6401   2.8111   3.6807   4.5031   4.7330

          k = 0.0667 0.4234 0.0000 (  3514 PWs)   bands (ev):

   -21.8399 -14.7281 -10.3175  -8.5184   2.2753   4.6383   5.6204   6.3834

          k = 0.0667 0.5004 0.0000 (  3511 PWs)   bands (ev):

   -20.3666 -16.7535 -10.7380  -6.9202  -0.0345   6.8155   7.8389   8.6269

          k = 0.0667 0.5774 0.0000 (  3512 PWs)   bands (ev):

   -18.9021 -18.4081 -10.8783  -6.0340  -1.1683   9.1004   9.3116   9.5678

          k = 0.1333 0.2309 0.0000 (  3547 PWs)   bands (ev):

   -24.2303 -11.5193  -9.7963  -9.0685   1.1622   2.0354   2.8105   3.1611

          k = 0.1333 0.3079 0.0000 (  3540 PWs)   bands (ev):

   -23.3433 -11.5126 -10.3739 -10.2435   2.4485   3.3387   4.1281   4.4683

          k = 0.1333 0.3849 0.0000 (  3518 PWs)   bands (ev):

   -22.2148 -13.5241 -11.0639  -8.9506   3.3807   4.0966   5.0395   5.8211

          k = 0.1333 0.4619 0.0000 (  3519 PWs)   bands (ev):

   -20.8566 -15.5516 -11.6135  -7.3425   0.9885   6.0993   7.0581   7.8887

          k = 0.1333 0.5389 0.0000 (  3510 PWs)   bands (ev):

   -19.2945 -17.4678 -11.8898  -5.9128  -0.8662   8.4420   9.3773  10.3189

          k = 0.2000 0.3464 0.0000 (  3513 PWs)   bands (ev):

   -22.3402 -12.5527 -11.9051  -9.0964   3.8885   3.9161   4.8201   5.6340

          k = 0.2000 0.4234 0.0000 (  3495 PWs)   bands (ev):

   -21.1039 -14.2532 -12.8098  -7.5740   1.7692   5.7390   6.6365   7.5146

          k = 0.2000 0.5004 0.0000 (  3500 PWs)   bands (ev):

   -19.6503 -16.1584 -13.2346  -5.9599  -0.2588   7.9032   8.6308   9.7684

          k = 0.2000 0.5774 0.0000 (  3490 PWs)   bands (ev):

   -18.1497 -17.8212 -13.3718  -4.9974  -1.3684   9.6184  10.2988  10.4473

          k = 0.2667 0.4619 0.0000 (  3481 PWs)   bands (ev):

   -19.7717 -14.8769 -14.5429  -5.9968   0.0600   7.7224   8.3041   9.5794

          k = 0.2667 0.5389 0.0000 (  3474 PWs)   bands (ev):

   -18.2408 -16.5302 -14.9623  -4.4555  -1.5444   8.7104  10.0057  11.5222

          k = 0.3333 0.5774 0.0000 (  3462 PWs)   bands (ev):

   -16.6890 -16.6431 -16.6431  -2.9486  -2.9486   8.3357  12.1640  12.1641

     the Fermi energy is    -2.9062 ev

!    total energy              =     -22.59063569 Ry
     estimated scf accuracy    <          3.5E-09 Ry
     smearing contrib. (-TS)   =      -0.00003668 Ry
     internal energy E=F+TS    =     -22.59059901 Ry

     The total energy is F=E-TS. E is the sum of the following terms:
     one-electron contribution =    -501.35757572 Ry
     hartree contribution      =     251.61914868 Ry
     xc contribution           =      -7.60694140 Ry
     ewald contribution        =     234.75476943 Ry

     convergence has been achieved in   6 iterations

     Forces acting on atoms (cartesian axes, Ry/au):

     atom    1 type  1   force =     0.00000000    0.00000000    0.00000000
     atom    2 type  1   force =     0.00000000    0.00000000    0.00000000

     Total force =     0.000000     Total SCF correction =     0.000000


     Computing stress (Cartesian axis) and pressure

          total   stress  (Ry/bohr**3)                   (kbar)     P=      252.83
   0.00265309   0.00000000   0.00000000          390.28        0.00        0.00
   0.00000000   0.00265309   0.00000000            0.00      390.28        0.00
  -0.00000000  -0.00000000  -0.00015008           -0.00       -0.00      -22.08


     Writing output data file ./work/LiC410.save/
 
     init_run     :      0.07s CPU      0.09s WALL (       1 calls)
     electrons    :      1.22s CPU      1.31s WALL (       1 calls)
     forces       :      0.01s CPU      0.01s WALL (       1 calls)
     stress       :      0.02s CPU      0.02s WALL (       1 calls)

     Called by init_run:
     wfcinit      :      0.05s CPU      0.06s WALL (       1 calls)
     potinit      :      0.01s CPU      0.01s WALL (       1 calls)
     hinit0       :      0.00s CPU      0.01s WALL (       1 calls)

     Called by electrons:
     c_bands      :      1.10s CPU      1.16s WALL (       6 calls)
     sum_band     :      0.11s CPU      0.12s WALL (       6 calls)
     v_of_rho     :      0.01s CPU      0.01s WALL (       7 calls)
     mix_rho      :      0.00s CPU      0.00s WALL (       6 calls)

     Called by c_bands:
     init_us_2    :      0.01s CPU      0.01s WALL (     405 calls)
     cegterg      :      1.08s CPU      1.14s WALL (     162 calls)

     Called by *egterg:
     cdiaghg      :      0.11s CPU      0.11s WALL (    1154 calls)
     h_psi        :      0.94s CPU      1.00s WALL (    1181 calls)
     g_psi        :      0.00s CPU      0.00s WALL (     992 calls)

     Called by h_psi:
     h_psi:calbec :      0.03s CPU      0.03s WALL (    1181 calls)
     vloc_psi     :      0.89s CPU      0.95s WALL (    1181 calls)
     add_vuspsi   :      0.01s CPU      0.01s WALL (    1181 calls)

     General routines
     calbec       :      0.03s CPU      0.03s WALL (    1316 calls)
     fft          :      0.01s CPU      0.02s WALL (      77 calls)
     ffts         :      0.00s CPU      0.00s WALL (       6 calls)
     fftw         :      0.94s CPU      1.01s WALL (   12950 calls)
 
     Parallel routines
     fft_scatt_xy :      0.05s CPU      0.05s WALL (   13033 calls)
     fft_scatt_yz :      0.39s CPU      0.41s WALL (   13033 calls)
 
     PWSCF        :      1.35s CPU      1.67s WALL

 
   This run was terminated on:  10:37:40  22Jan2024            

=------------------------------------------------------------------------------=
   JOB DONE.
=------------------------------------------------------------------------------=
