
     Program PWSCF v.6.7MaX starts on 22Jan2024 at 11: 0:50 

     This program is part of the open-source Quantum ESPRESSO suite
     for quantum simulation of materials; please cite
         "P. Giannozzi et al., J. Phys.:Condens. Matter 21 395502 (2009);
         "P. Giannozzi et al., J. Phys.:Condens. Matter 29 465901 (2017);
          URL http://www.quantum-espresso.org", 
     in publications or presentations arising from this work. More details at
     http://www.quantum-espresso.org/quote

     Parallel version (MPI), running on    32 processors

     MPI processes distributed on     1 nodes
     R & G space division:  proc/nbgrp/npool/nimage =      32
     Waiting for input...
     Reading input from standard input
Warning: card &CELL ignored
Warning: card  CELL_DYNAMICS = 'BFGS', ignored
Warning: card  PRESS = 0.0, ignored
Warning: card  PRESS_CONV_THR = 1D-3, ignored
Warning: card  CELL_DOFREE='2DXY' ignored
Warning: card / ignored

     Current dimensions of program PWSCF are:
     Max number of different atomic species (ntypx) = 10
     Max number of k-points (npk) =  40000
     Max angular momentum in pseudopotentials (lmaxx) =  3
     Message from routine read_pp_mesh:
     mesh size missing, using the one in header

     Subspace diagonalization in iterative solution of the eigenvalue problem:
     a serial algorithm will be used

 
     Parallelization info
     --------------------
     sticks:   dense  smooth     PW     G-vecs:    dense   smooth      PW
     Min           9       9      2                 1109     1109     170
     Max          10      10      3                 1136     1136     215
     Sum         295     295     91                35721    35721    6385
 


     bravais-lattice index     =            4
     lattice parameter (alat)  =       4.6100  a.u.
     unit-cell volume          =     745.3968 (a.u.)^3
     number of atoms/cell      =            2
     number of atomic types    =            1
     number of electrons       =         8.00
     number of Kohn-Sham states=            8
     kinetic-energy cutoff     =      50.0000  Ry
     charge density cutoff     =     200.0000  Ry
     scf convergence threshold =      1.0E-08
     mixing beta               =       0.7000
     number of iterations used =            8  plain     mixing
     Exchange-correlation= PBE
                           (   1   4   3   4   0   0   0)

     celldm(1)=   4.610000  celldm(2)=   0.000000  celldm(3)=   8.785249
     celldm(4)=   0.000000  celldm(5)=   0.000000  celldm(6)=   0.000000

     crystal axes: (cart. coord. in units of alat)
               a(1) = (   1.000000   0.000000   0.000000 )  
               a(2) = (  -0.500000   0.866025   0.000000 )  
               a(3) = (   0.000000   0.000000   8.785249 )  

     reciprocal axes: (cart. coord. in units 2 pi/alat)
               b(1) = (  1.000000  0.577350  0.000000 )  
               b(2) = (  0.000000  1.154701  0.000000 )  
               b(3) = (  0.000000  0.000000  0.113827 )  


     PseudoPot. # 1 for C  read from file:
     /home/yhkim/qe-6.7/pseudo/ONCV1/1.2/C_ONCV_PBE-1.2.upf
     MD5 check sum: 1a5f83a7b1f58d24996abe00ed223ac6
     Pseudo is Norm-conserving, Zval =  4.0
     Generated using ONCVPSP code by D. R. Hamann
     Using radial grid of  602 points,  4 beta functions with: 
                l(1) =   0
                l(2) =   0
                l(3) =   1
                l(4) =   1

     atomic species   valence    mass     pseudopotential
        C              4.00    12.01070     C ( 1.00)

     24 Sym. Ops., with inversion, found



   Cartesian axes

     site n.     atom                  positions (alat units)
         1           C   tau(   1) = (  -0.0000000   0.5773503   4.3926247  )
         2           C   tau(   2) = (   0.5000000   0.2886751   4.3926247  )

     number of k points=    27  Methfessel-Paxton smearing, width (Ry)=  0.0100
                       cart. coord. in units 2pi/alat
        k(    1) = (   0.0000000   0.0000000   0.0000000), wk =   0.0088889
        k(    2) = (   0.0000000   0.0769800   0.0000000), wk =   0.0533333
        k(    3) = (   0.0000000   0.1539601   0.0000000), wk =   0.0533333
        k(    4) = (   0.0000000   0.2309401   0.0000000), wk =   0.0533333
        k(    5) = (   0.0000000   0.3079201   0.0000000), wk =   0.0533333
        k(    6) = (   0.0000000   0.3849002   0.0000000), wk =   0.0533333
        k(    7) = (   0.0000000   0.4618802   0.0000000), wk =   0.0533333
        k(    8) = (   0.0000000   0.5388603   0.0000000), wk =   0.0533333
        k(    9) = (   0.0666667   0.1154701   0.0000000), wk =   0.0533333
        k(   10) = (   0.0666667   0.1924501   0.0000000), wk =   0.1066667
        k(   11) = (   0.0666667   0.2694301   0.0000000), wk =   0.1066667
        k(   12) = (   0.0666667   0.3464102   0.0000000), wk =   0.1066667
        k(   13) = (   0.0666667   0.4233902   0.0000000), wk =   0.1066667
        k(   14) = (   0.0666667   0.5003702   0.0000000), wk =   0.1066667
        k(   15) = (   0.0666667   0.5773503   0.0000000), wk =   0.0533333
        k(   16) = (   0.1333333   0.2309401   0.0000000), wk =   0.0533333
        k(   17) = (   0.1333333   0.3079201   0.0000000), wk =   0.1066667
        k(   18) = (   0.1333333   0.3849002   0.0000000), wk =   0.1066667
        k(   19) = (   0.1333333   0.4618802   0.0000000), wk =   0.1066667
        k(   20) = (   0.1333333   0.5388603   0.0000000), wk =   0.1066667
        k(   21) = (   0.2000000   0.3464102   0.0000000), wk =   0.0533333
        k(   22) = (   0.2000000   0.4233902   0.0000000), wk =   0.1066667
        k(   23) = (   0.2000000   0.5003702   0.0000000), wk =   0.1066667
        k(   24) = (   0.2000000   0.5773503   0.0000000), wk =   0.0533333
        k(   25) = (   0.2666667   0.4618802   0.0000000), wk =   0.0533333
        k(   26) = (   0.2666667   0.5388603   0.0000000), wk =   0.1066667
        k(   27) = (   0.3333333   0.5773503   0.0000000), wk =   0.0177778

     Dense  grid:    35721 G-vectors     FFT dimensions: (  24,  24, 192)

     Estimated max dynamical RAM per process >       1.61 MB

     Estimated total dynamical RAM >      51.66 MB
 ----2D----2D----2D----2D----2D----2D----2D----2D----2D----2D----2D----2D
  The code is running with the 2D cutoff
  Please refer to:
  Sohier, T., Calandra, M., & Mauri, F. (2017), 
  Density functional perturbation theory for gated two-dimensional heterostructu
 res:
  Theoretical developments and application to flexural phonons in graphene.
  Physical Review B, 96(7), 75448. https://doi.org/10.1103/PhysRevB.96.075448
 ----2D----2D----2D----2D----2D----2D----2D----2D----2D----2D----2D----2D

     Initial potential from superposition of free atoms

     starting charge    7.98607, renormalised to    8.00000

     negative rho (up, down):  1.107E-04 0.000E+00
     Starting wfcs are random

     total cpu time spent up to now is        0.1 secs

     Self-consistent Calculation

     iteration #  1     ecut=    50.00 Ry     beta= 0.70
     Davidson diagonalization with overlap
     ethr =  1.00E-02,  avg # of iterations = 11.6

     negative rho (up, down):  9.829E-08 0.000E+00

     total cpu time spent up to now is        0.5 secs

     total energy              =     -22.75825736 Ry
     estimated scf accuracy    <       0.18296536 Ry

     iteration #  2     ecut=    50.00 Ry     beta= 0.70
     Davidson diagonalization with overlap
     ethr =  2.29E-03,  avg # of iterations =  2.3

     total cpu time spent up to now is        0.6 secs

     total energy              =     -22.78645658 Ry
     estimated scf accuracy    <       0.00218206 Ry

     iteration #  3     ecut=    50.00 Ry     beta= 0.70
     Davidson diagonalization with overlap
     ethr =  2.73E-05,  avg # of iterations =  9.8

     total cpu time spent up to now is        0.8 secs

     total energy              =     -22.78963583 Ry
     estimated scf accuracy    <       0.00015974 Ry

     iteration #  4     ecut=    50.00 Ry     beta= 0.70
     Davidson diagonalization with overlap
     ethr =  2.00E-06,  avg # of iterations =  6.1

     total cpu time spent up to now is        1.0 secs

     total energy              =     -22.78967193 Ry
     estimated scf accuracy    <       0.00000031 Ry

     iteration #  5     ecut=    50.00 Ry     beta= 0.70
     Davidson diagonalization with overlap
     ethr =  3.87E-09,  avg # of iterations =  4.4

     total cpu time spent up to now is        1.2 secs

     total energy              =     -22.78967457 Ry
     estimated scf accuracy    <       0.00000003 Ry

     iteration #  6     ecut=    50.00 Ry     beta= 0.70
     Davidson diagonalization with overlap
     ethr =  3.47E-10,  avg # of iterations =  2.0

     total cpu time spent up to now is        1.3 secs

     End of self-consistent calculation

          k = 0.0000 0.0000 0.0000 (  4435 PWs)   bands (ev):

   -23.9554 -11.9977  -7.2220  -7.2220  -0.9863  -0.2039   0.5830   0.9382

          k = 0.0000 0.0770 0.0000 (  4429 PWs)   bands (ev):

   -23.8483 -11.8688  -7.6502  -7.4499  -0.8407  -0.0561   0.7316   1.0863

          k = 0.0000 0.1540 0.0000 (  4417 PWs)   bands (ev):

   -23.5284 -11.4840  -8.7878  -8.0289  -0.4039   0.3867   1.1777   1.5303

          k = 0.0000 0.2309 0.0000 (  4421 PWs)   bands (ev):

   -22.9979 -10.8503 -10.3566  -8.7555   0.3235   1.1225   1.9212   2.2683

          k = 0.0000 0.3079 0.0000 (  4455 PWs)   bands (ev):

   -22.2609 -12.1197  -9.9831  -9.4635   1.3396   2.1217   2.8514   2.9599

          k = 0.0000 0.3849 0.0000 (  4469 PWs)   bands (ev):

   -21.3245 -13.9155 -10.0508  -8.9171   0.8980   2.6365   3.4978   3.8563

          k = 0.0000 0.4619 0.0000 (  4481 PWs)   bands (ev):

   -20.2034 -15.6463 -10.4662  -7.7383  -0.9120   3.6310   4.2653   5.0986

          k = 0.0000 0.5389 0.0000 (  4479 PWs)   bands (ev):

   -18.9648 -17.1997 -10.6786  -6.7493  -2.2368   3.5484   6.0972   6.9706

          k = 0.0667 0.1155 0.0000 (  4413 PWs)   bands (ev):

   -23.6349 -11.6111  -8.3780  -7.9081  -0.5494   0.2393   1.0291   1.3824

          k = 0.0667 0.1925 0.0000 (  4439 PWs)   bands (ev):

   -23.2099 -11.1026  -9.6414  -8.6562   0.0330   0.8288   1.6239   1.9737

          k = 0.0667 0.2694 0.0000 (  4430 PWs)   bands (ev):

   -22.5760 -11.2478 -10.3505  -9.4308   0.9055   1.7077   2.5159   2.8525

          k = 0.0667 0.3464 0.0000 (  4462 PWs)   bands (ev):

   -21.7394 -12.9971 -10.1098  -9.3797   1.7667   2.0647   2.9134   3.7012

          k = 0.0667 0.4234 0.0000 (  4470 PWs)   bands (ev):

   -20.7096 -14.7464 -10.6248  -8.2408  -0.0794   3.4955   4.2384   4.3617

          k = 0.0667 0.5004 0.0000 (  4474 PWs)   bands (ev):

   -19.5136 -16.3978 -10.9446  -7.0895  -1.7013   4.0567   5.2497   6.0928

          k = 0.0667 0.5774 0.0000 (  4440 PWs)   bands (ev):

   -18.5035 -17.5629 -11.0516  -6.4782  -2.4723   4.0106   7.1385   7.2929

          k = 0.1333 0.2309 0.0000 (  4419 PWs)   bands (ev):

   -22.6815 -10.7516 -10.4735  -9.6437   0.7610   1.5640   2.3678   2.7117

          k = 0.1333 0.3079 0.0000 (  4442 PWs)   bands (ev):

   -21.9481 -12.1677 -10.5711  -9.6151   1.7776   2.3367   2.6053   3.4085

          k = 0.1333 0.3849 0.0000 (  4457 PWs)   bands (ev):

   -21.0174 -13.7892 -11.2574  -8.5555   0.6158   3.0784   3.9021   4.7433

          k = 0.1333 0.4619 0.0000 (  4475 PWs)   bands (ev):

   -19.9060 -15.4337 -11.7102  -7.3776  -1.0711   4.6477   5.4222   5.4738

          k = 0.1333 0.5389 0.0000 (  4463 PWs)   bands (ev):

   -18.6835 -16.9400 -11.9364  -6.3654  -2.3538   5.2961   6.5072   7.2062

          k = 0.2000 0.3464 0.0000 (  4443 PWs)   bands (ev):

   -21.1207 -13.1861 -11.7761  -8.6623   0.9020   2.9356   3.7417   4.5975

          k = 0.2000 0.4234 0.0000 (  4442 PWs)   bands (ev):

   -20.1062 -14.4940 -12.6100  -7.5369  -0.6227   4.3713   5.1422   6.0799

          k = 0.2000 0.5004 0.0000 (  4460 PWs)   bands (ev):

   -18.9360 -15.9566 -13.0388  -6.3659  -2.0592   6.0618   6.6108   7.1033

          k = 0.2000 0.5774 0.0000 (  4445 PWs)   bands (ev):

   -17.9601 -17.0454 -13.1723  -5.6944  -2.8227   7.0263   7.2752   7.8642

          k = 0.2667 0.4619 0.0000 (  4443 PWs)   bands (ev):

   -19.0278 -15.2711 -13.7750  -6.3793  -1.9053   5.9234   6.3713   7.6648

          k = 0.2667 0.5389 0.0000 (  4446 PWs)   bands (ev):

   -17.8580 -16.3485 -14.3247  -5.2657  -3.0760   6.7294   7.6624   8.7680

          k = 0.3333 0.5774 0.0000 (  4407 PWs)   bands (ev):

   -16.8769 -16.8769 -14.9859  -4.1486  -4.1486   6.5233   8.9505   8.9505

     the Fermi energy is    -4.1486 ev

!    total energy              =     -22.78967457 Ry
     estimated scf accuracy    <          3.6E-10 Ry
     smearing contrib. (-TS)   =      -0.00005015 Ry
     internal energy E=F+TS    =     -22.78962442 Ry

     The total energy is F=E-TS. E is the sum of the following terms:
     one-electron contribution =    -395.28061026 Ry
     hartree contribution      =     198.28074349 Ry
     xc contribution           =      -7.05634259 Ry
     ewald contribution        =     181.26658494 Ry

     convergence has been achieved in   6 iterations

     Forces acting on atoms (cartesian axes, Ry/au):

     atom    1 type  1   force =     0.00000000    0.00000000    0.00000000
     atom    2 type  1   force =     0.00000000    0.00000000    0.00000000

     Total force =     0.000000     Total SCF correction =     0.000000


     Computing stress (Cartesian axis) and pressure

          total   stress  (Ry/bohr**3)                   (kbar)     P=       -1.86
   0.00003648  -0.00000000  -0.00000000            5.37       -0.00       -0.00
  -0.00000000   0.00003648   0.00000000           -0.00        5.37        0.00
  -0.00000000   0.00000000  -0.00011081           -0.00        0.00      -16.30


     Writing output data file ./work/LiC461.save/
 
     init_run     :      0.06s CPU      0.08s WALL (       1 calls)
     electrons    :      1.07s CPU      1.17s WALL (       1 calls)
     forces       :      0.01s CPU      0.01s WALL (       1 calls)
     stress       :      0.02s CPU      0.02s WALL (       1 calls)

     Called by init_run:
     wfcinit      :      0.05s CPU      0.06s WALL (       1 calls)
     potinit      :      0.00s CPU      0.01s WALL (       1 calls)
     hinit0       :      0.00s CPU      0.00s WALL (       1 calls)

     Called by electrons:
     c_bands      :      0.97s CPU      1.04s WALL (       6 calls)
     sum_band     :      0.09s CPU      0.10s WALL (       6 calls)
     v_of_rho     :      0.01s CPU      0.02s WALL (       7 calls)
     mix_rho      :      0.00s CPU      0.00s WALL (       6 calls)

     Called by c_bands:
     init_us_2    :      0.01s CPU      0.01s WALL (     405 calls)
     cegterg      :      0.95s CPU      1.02s WALL (     162 calls)

     Called by *egterg:
     cdiaghg      :      0.10s CPU      0.11s WALL (    1138 calls)
     h_psi        :      0.80s CPU      0.86s WALL (    1165 calls)
     g_psi        :      0.00s CPU      0.00s WALL (     976 calls)

     Called by h_psi:
     h_psi:calbec :      0.03s CPU      0.03s WALL (    1165 calls)
     vloc_psi     :      0.75s CPU      0.81s WALL (    1165 calls)
     add_vuspsi   :      0.01s CPU      0.01s WALL (    1165 calls)

     General routines
     calbec       :      0.04s CPU      0.04s WALL (    1300 calls)
     fft          :      0.01s CPU      0.01s WALL (      77 calls)
     ffts         :      0.00s CPU      0.00s WALL (       6 calls)
     fftw         :      0.78s CPU      0.84s WALL (   13126 calls)
 
     Parallel routines
     fft_scatt_xy :      0.06s CPU      0.06s WALL (   13209 calls)
     fft_scatt_yz :      0.40s CPU      0.43s WALL (   13209 calls)
 
     PWSCF        :      1.21s CPU      1.54s WALL

 
   This run was terminated on:  11: 0:52  22Jan2024            

=------------------------------------------------------------------------------=
   JOB DONE.
=------------------------------------------------------------------------------=
