
     Program PWSCF v.6.7MaX starts on 22Jan2024 at 11: 0:21 

     This program is part of the open-source Quantum ESPRESSO suite
     for quantum simulation of materials; please cite
         "P. Giannozzi et al., J. Phys.:Condens. Matter 21 395502 (2009);
         "P. Giannozzi et al., J. Phys.:Condens. Matter 29 465901 (2017);
          URL http://www.quantum-espresso.org", 
     in publications or presentations arising from this work. More details at
     http://www.quantum-espresso.org/quote

     Parallel version (MPI), running on    32 processors

     MPI processes distributed on     1 nodes
     R & G space division:  proc/nbgrp/npool/nimage =      32
     Waiting for input...
     Reading input from standard input
Warning: card &CELL ignored
Warning: card  CELL_DYNAMICS = 'BFGS', ignored
Warning: card  PRESS = 0.0, ignored
Warning: card  PRESS_CONV_THR = 1D-3, ignored
Warning: card  CELL_DOFREE='2DXY' ignored
Warning: card / ignored

     Current dimensions of program PWSCF are:
     Max number of different atomic species (ntypx) = 10
     Max number of k-points (npk) =  40000
     Max angular momentum in pseudopotentials (lmaxx) =  3
     Message from routine read_pp_mesh:
     mesh size missing, using the one in header

     Subspace diagonalization in iterative solution of the eigenvalue problem:
     a serial algorithm will be used

 
     Parallelization info
     --------------------
     sticks:   dense  smooth     PW     G-vecs:    dense   smooth      PW
     Min           8       8      2                 1028     1028     166
     Max           9       9      3                 1055     1055     209
     Sum         271     271     85                33165    33165    6079
 


     bravais-lattice index     =            4
     lattice parameter (alat)  =       4.4600  a.u.
     unit-cell volume          =     697.6786 (a.u.)^3
     number of atoms/cell      =            2
     number of atomic types    =            1
     number of electrons       =         8.00
     number of Kohn-Sham states=            8
     kinetic-energy cutoff     =      50.0000  Ry
     charge density cutoff     =     200.0000  Ry
     scf convergence threshold =      1.0E-08
     mixing beta               =       0.7000
     number of iterations used =            8  plain     mixing
     Exchange-correlation= PBE
                           (   1   4   3   4   0   0   0)

     celldm(1)=   4.460000  celldm(2)=   0.000000  celldm(3)=   9.080717
     celldm(4)=   0.000000  celldm(5)=   0.000000  celldm(6)=   0.000000

     crystal axes: (cart. coord. in units of alat)
               a(1) = (   1.000000   0.000000   0.000000 )  
               a(2) = (  -0.500000   0.866025   0.000000 )  
               a(3) = (   0.000000   0.000000   9.080717 )  

     reciprocal axes: (cart. coord. in units 2 pi/alat)
               b(1) = (  1.000000  0.577350  0.000000 )  
               b(2) = (  0.000000  1.154701  0.000000 )  
               b(3) = (  0.000000  0.000000  0.110123 )  


     PseudoPot. # 1 for C  read from file:
     /home/yhkim/qe-6.7/pseudo/ONCV1/1.2/C_ONCV_PBE-1.2.upf
     MD5 check sum: 1a5f83a7b1f58d24996abe00ed223ac6
     Pseudo is Norm-conserving, Zval =  4.0
     Generated using ONCVPSP code by D. R. Hamann
     Using radial grid of  602 points,  4 beta functions with: 
                l(1) =   0
                l(2) =   0
                l(3) =   1
                l(4) =   1

     atomic species   valence    mass     pseudopotential
        C              4.00    12.01070     C ( 1.00)

     24 Sym. Ops., with inversion, found



   Cartesian axes

     site n.     atom                  positions (alat units)
         1           C   tau(   1) = (  -0.0000000   0.5773503   4.5403587  )
         2           C   tau(   2) = (   0.5000000   0.2886751   4.5403587  )

     number of k points=    27  Methfessel-Paxton smearing, width (Ry)=  0.0100
                       cart. coord. in units 2pi/alat
        k(    1) = (   0.0000000   0.0000000   0.0000000), wk =   0.0088889
        k(    2) = (   0.0000000   0.0769800   0.0000000), wk =   0.0533333
        k(    3) = (   0.0000000   0.1539601   0.0000000), wk =   0.0533333
        k(    4) = (   0.0000000   0.2309401   0.0000000), wk =   0.0533333
        k(    5) = (   0.0000000   0.3079201   0.0000000), wk =   0.0533333
        k(    6) = (   0.0000000   0.3849002   0.0000000), wk =   0.0533333
        k(    7) = (   0.0000000   0.4618802   0.0000000), wk =   0.0533333
        k(    8) = (   0.0000000   0.5388603   0.0000000), wk =   0.0533333
        k(    9) = (   0.0666667   0.1154701   0.0000000), wk =   0.0533333
        k(   10) = (   0.0666667   0.1924501   0.0000000), wk =   0.1066667
        k(   11) = (   0.0666667   0.2694301   0.0000000), wk =   0.1066667
        k(   12) = (   0.0666667   0.3464102   0.0000000), wk =   0.1066667
        k(   13) = (   0.0666667   0.4233902   0.0000000), wk =   0.1066667
        k(   14) = (   0.0666667   0.5003702   0.0000000), wk =   0.1066667
        k(   15) = (   0.0666667   0.5773503   0.0000000), wk =   0.0533333
        k(   16) = (   0.1333333   0.2309401   0.0000000), wk =   0.0533333
        k(   17) = (   0.1333333   0.3079201   0.0000000), wk =   0.1066667
        k(   18) = (   0.1333333   0.3849002   0.0000000), wk =   0.1066667
        k(   19) = (   0.1333333   0.4618802   0.0000000), wk =   0.1066667
        k(   20) = (   0.1333333   0.5388603   0.0000000), wk =   0.1066667
        k(   21) = (   0.2000000   0.3464102   0.0000000), wk =   0.0533333
        k(   22) = (   0.2000000   0.4233902   0.0000000), wk =   0.1066667
        k(   23) = (   0.2000000   0.5003702   0.0000000), wk =   0.1066667
        k(   24) = (   0.2000000   0.5773503   0.0000000), wk =   0.0533333
        k(   25) = (   0.2666667   0.4618802   0.0000000), wk =   0.0533333
        k(   26) = (   0.2666667   0.5388603   0.0000000), wk =   0.1066667
        k(   27) = (   0.3333333   0.5773503   0.0000000), wk =   0.0177778

     Dense  grid:    33165 G-vectors     FFT dimensions: (  24,  24, 192)

     Estimated max dynamical RAM per process >       1.54 MB

     Estimated total dynamical RAM >      49.39 MB
 ----2D----2D----2D----2D----2D----2D----2D----2D----2D----2D----2D----2D
  The code is running with the 2D cutoff
  Please refer to:
  Sohier, T., Calandra, M., & Mauri, F. (2017), 
  Density functional perturbation theory for gated two-dimensional heterostructu
 res:
  Theoretical developments and application to flexural phonons in graphene.
  Physical Review B, 96(7), 75448. https://doi.org/10.1103/PhysRevB.96.075448
 ----2D----2D----2D----2D----2D----2D----2D----2D----2D----2D----2D----2D

     Initial potential from superposition of free atoms

     starting charge    7.98607, renormalised to    8.00000

     negative rho (up, down):  1.083E-04 0.000E+00
     Starting wfcs are random

     total cpu time spent up to now is        0.1 secs

     Self-consistent Calculation

     iteration #  1     ecut=    50.00 Ry     beta= 0.70
     Davidson diagonalization with overlap
     ethr =  1.00E-02,  avg # of iterations = 12.0

     negative rho (up, down):  2.583E-08 0.000E+00

     total cpu time spent up to now is        0.5 secs

     total energy              =     -22.73001261 Ry
     estimated scf accuracy    <       0.24071790 Ry

     iteration #  2     ecut=    50.00 Ry     beta= 0.70
     Davidson diagonalization with overlap
     ethr =  3.01E-03,  avg # of iterations =  2.1

     total cpu time spent up to now is        0.6 secs

     total energy              =     -22.76649957 Ry
     estimated scf accuracy    <       0.00230405 Ry

     iteration #  3     ecut=    50.00 Ry     beta= 0.70
     Davidson diagonalization with overlap
     ethr =  2.88E-05,  avg # of iterations = 11.3

     total cpu time spent up to now is        0.8 secs

     total energy              =     -22.76763977 Ry
     estimated scf accuracy    <       0.00015241 Ry

     iteration #  4     ecut=    50.00 Ry     beta= 0.70
     Davidson diagonalization with overlap
     c_bands:  1 eigenvalues not converged
     ethr =  1.91E-06,  avg # of iterations =  5.9

     total cpu time spent up to now is        1.0 secs

     total energy              =     -22.76767449 Ry
     estimated scf accuracy    <       0.00000158 Ry

     iteration #  5     ecut=    50.00 Ry     beta= 0.70
     Davidson diagonalization with overlap
     ethr =  1.97E-08,  avg # of iterations =  3.9

     total cpu time spent up to now is        1.1 secs

     total energy              =     -22.76767744 Ry
     estimated scf accuracy    <       0.00000017 Ry

     iteration #  6     ecut=    50.00 Ry     beta= 0.70
     Davidson diagonalization with overlap
     ethr =  2.18E-09,  avg # of iterations =  2.1

     total cpu time spent up to now is        1.3 secs

     End of self-consistent calculation

          k = 0.0000 0.0000 0.0000 (  4027 PWs)   bands (ev):

   -24.4892 -12.4124  -6.8593  -1.0059  -0.2067   0.5741   0.9298   2.2560

          k = 0.0000 0.0770 0.0000 (  4083 PWs)   bands (ev):

   -24.3763 -12.2739  -7.3202  -7.1195  -0.8506  -0.0487   0.7330   1.0882

          k = 0.0000 0.1540 0.0000 (  4111 PWs)   bands (ev):

   -24.0378 -11.8575  -8.5229  -7.7673  -0.3846   0.4252   1.2095   1.5633

          k = 0.0000 0.2309 0.0000 (  4113 PWs)   bands (ev):

   -23.4758 -11.1695 -10.1748  -8.5702   0.3922   1.2132   2.0039   2.3534

          k = 0.0000 0.3079 0.0000 (  4139 PWs)   bands (ev):

   -22.6950 -12.0298 -10.2294  -9.3447   1.4777   2.2991   3.1151   3.4114

          k = 0.0000 0.3849 0.0000 (  4153 PWs)   bands (ev):

   -21.7015 -13.9272  -9.9853  -9.0687   1.5925   2.8667   3.7648   4.5350

          k = 0.0000 0.4619 0.0000 (  4166 PWs)   bands (ev):

   -20.5063 -15.7644 -10.4364  -7.7789  -0.4092   4.5140   5.0182   5.4765

          k = 0.0000 0.5389 0.0000 (  4184 PWs)   bands (ev):

   -19.1457 -17.4578 -10.6681  -6.6858  -1.8822   4.8591   6.5727   7.4897

          k = 0.0667 0.1155 0.0000 (  4111 PWs)   bands (ev):

   -24.1505 -11.9955  -8.0873  -7.6368  -0.5399   0.2674   1.0507   1.4050

          k = 0.0667 0.1925 0.0000 (  4121 PWs)   bands (ev):

   -23.7003 -11.4439  -9.4123  -8.4602   0.0820   0.8985   1.6863   2.0379

          k = 0.0667 0.2694 0.0000 (  4132 PWs)   bands (ev):

   -23.0287 -11.1052 -10.6285  -9.3068   1.0140   1.8407   2.6397   2.9822

          k = 0.0667 0.3464 0.0000 (  4140 PWs)   bands (ev):

   -22.1419 -12.9515 -10.0402  -9.5725   2.2529   2.5408   3.1655   3.9092

          k = 0.0667 0.4234 0.0000 (  4164 PWs)   bands (ev):

   -21.0478 -14.8047 -10.5982  -8.3310   0.5230   3.7909   4.6872   5.4308

          k = 0.0667 0.5004 0.0000 (  4168 PWs)   bands (ev):

   -19.7629 -16.5699 -10.9444  -7.0642  -1.2760   5.3293   5.7147   6.5466

          k = 0.0667 0.5774 0.0000 (  4181 PWs)   bands (ev):

   -18.5551 -17.9420 -11.0613  -6.3866  -2.1391   5.3442   7.6948   7.8422

          k = 0.1333 0.2309 0.0000 (  4133 PWs)   bands (ev):

   -23.1403 -10.7624 -10.5584  -9.5510   0.8598   1.6857   2.4812   2.8277

          k = 0.1333 0.3079 0.0000 (  4166 PWs)   bands (ev):

   -22.3633 -12.0483 -10.5499  -9.8293   1.9462   2.7721   3.2586   3.5936

          k = 0.1333 0.3849 0.0000 (  4178 PWs)   bands (ev):

   -21.3758 -13.7719 -11.2752  -8.6759   1.3194   3.3368   4.1947   5.0227

          k = 0.1333 0.4619 0.0000 (  4183 PWs)   bands (ev):

   -20.1902 -15.5262 -11.7527  -7.3863  -0.5480   5.0219   5.8846   6.7032

          k = 0.1333 0.5389 0.0000 (  4181 PWs)   bands (ev):

   -18.8475 -17.1713 -11.9917  -6.2690  -1.9757   6.6547   7.0348   7.7707

          k = 0.2000 0.3464 0.0000 (  4183 PWs)   bands (ev):

   -21.4858 -13.0791 -11.8760  -8.7922   1.6581   3.1841   4.0210   4.8650

          k = 0.2000 0.4234 0.0000 (  4202 PWs)   bands (ev):

   -20.4069 -14.4751 -12.7513  -7.5652  -0.0233   4.7201   5.5287   6.4507

          k = 0.2000 0.5004 0.0000 (  4197 PWs)   bands (ev):

   -19.1485 -16.0646 -13.1810  -6.2794  -1.6075   6.5358   7.1296   8.3339

          k = 0.2000 0.5774 0.0000 (  4211 PWs)   bands (ev):

   -17.9980 -17.3432 -13.3157  -5.5354  -2.4575   7.8629   8.4422   8.4950

          k = 0.2667 0.4619 0.0000 (  4213 PWs)   bands (ev):

   -19.2530 -15.2316 -14.0564  -6.3001  -1.4182   6.3846   6.8651   8.1614

          k = 0.2667 0.5389 0.0000 (  4211 PWs)   bands (ev):

   -17.9707 -16.4294 -14.6222  -5.0760  -2.6978   7.2276   8.2728   9.7473

          k = 0.3333 0.5774 0.0000 (  4221 PWs)   bands (ev):

   -16.8858 -16.8858 -15.4708  -3.8597  -3.8597   6.9793   9.8508   9.8508

     the Fermi energy is    -3.8173 ev

!    total energy              =     -22.76767748 Ry
     estimated scf accuracy    <          6.3E-09 Ry
     smearing contrib. (-TS)   =      -0.00003668 Ry
     internal energy E=F+TS    =     -22.76764081 Ry

     The total energy is F=E-TS. E is the sum of the following terms:
     one-electron contribution =    -422.65295892 Ry
     hartree contribution      =     212.03439586 Ry
     xc contribution           =      -7.20240031 Ry
     ewald contribution        =     195.05332256 Ry

     convergence has been achieved in   6 iterations

     Forces acting on atoms (cartesian axes, Ry/au):

     atom    1 type  1   force =     0.00000000    0.00000000    0.00000000
     atom    2 type  1   force =    -0.00000000   -0.00000000    0.00000000

     Total force =     0.000000     Total SCF correction =     0.000000


     Computing stress (Cartesian axis) and pressure

          total   stress  (Ry/bohr**3)                   (kbar)     P=       48.84
   0.00055836  -0.00000000   0.00000000           82.14       -0.00        0.00
  -0.00000000   0.00055836  -0.00000000           -0.00       82.14       -0.00
   0.00000000   0.00000000  -0.00012072            0.00        0.00      -17.76


     Writing output data file ./work/LiC446.save/
 
     init_run     :      0.06s CPU      0.08s WALL (       1 calls)
     electrons    :      1.07s CPU      1.17s WALL (       1 calls)
     forces       :      0.01s CPU      0.01s WALL (       1 calls)
     stress       :      0.02s CPU      0.02s WALL (       1 calls)

     Called by init_run:
     wfcinit      :      0.05s CPU      0.06s WALL (       1 calls)
     potinit      :      0.00s CPU      0.01s WALL (       1 calls)
     hinit0       :      0.00s CPU      0.00s WALL (       1 calls)

     Called by electrons:
     c_bands      :      0.96s CPU      1.04s WALL (       6 calls)
     sum_band     :      0.09s CPU      0.10s WALL (       6 calls)
     v_of_rho     :      0.01s CPU      0.02s WALL (       7 calls)
     mix_rho      :      0.00s CPU      0.00s WALL (       6 calls)

     Called by c_bands:
     init_us_2    :      0.01s CPU      0.01s WALL (     405 calls)
     cegterg      :      0.94s CPU      1.02s WALL (     162 calls)

     Called by *egterg:
     cdiaghg      :      0.11s CPU      0.11s WALL (    1167 calls)
     h_psi        :      0.79s CPU      0.86s WALL (    1194 calls)
     g_psi        :      0.00s CPU      0.00s WALL (    1005 calls)

     Called by h_psi:
     h_psi:calbec :      0.03s CPU      0.04s WALL (    1194 calls)
     vloc_psi     :      0.74s CPU      0.80s WALL (    1194 calls)
     add_vuspsi   :      0.01s CPU      0.01s WALL (    1194 calls)

     General routines
     calbec       :      0.04s CPU      0.04s WALL (    1329 calls)
     fft          :      0.01s CPU      0.01s WALL (      77 calls)
     ffts         :      0.00s CPU      0.00s WALL (       6 calls)
     fftw         :      0.77s CPU      0.84s WALL (   13104 calls)
 
     Parallel routines
     fft_scatt_xy :      0.06s CPU      0.06s WALL (   13187 calls)
     fft_scatt_yz :      0.40s CPU      0.44s WALL (   13187 calls)
 
     PWSCF        :      1.20s CPU      1.53s WALL

 
   This run was terminated on:  11: 0:23  22Jan2024            

=------------------------------------------------------------------------------=
   JOB DONE.
=------------------------------------------------------------------------------=
