
     Program PWSCF v.6.7MaX starts on 22Jan2024 at 11: 0:44 

     This program is part of the open-source Quantum ESPRESSO suite
     for quantum simulation of materials; please cite
         "P. Giannozzi et al., J. Phys.:Condens. Matter 21 395502 (2009);
         "P. Giannozzi et al., J. Phys.:Condens. Matter 29 465901 (2017);
          URL http://www.quantum-espresso.org", 
     in publications or presentations arising from this work. More details at
     http://www.quantum-espresso.org/quote

     Parallel version (MPI), running on    32 processors

     MPI processes distributed on     1 nodes
     R & G space division:  proc/nbgrp/npool/nimage =      32
     Waiting for input...
     Reading input from standard input
Warning: card &CELL ignored
Warning: card  CELL_DYNAMICS = 'BFGS', ignored
Warning: card  PRESS = 0.0, ignored
Warning: card  PRESS_CONV_THR = 1D-3, ignored
Warning: card  CELL_DOFREE='2DXY' ignored
Warning: card / ignored

     Current dimensions of program PWSCF are:
     Max number of different atomic species (ntypx) = 10
     Max number of k-points (npk) =  40000
     Max angular momentum in pseudopotentials (lmaxx) =  3
     Message from routine read_pp_mesh:
     mesh size missing, using the one in header

     Subspace diagonalization in iterative solution of the eigenvalue problem:
     a serial algorithm will be used

 
     Parallelization info
     --------------------
     sticks:   dense  smooth     PW     G-vecs:    dense   smooth      PW
     Min           9       9      2                 1086     1086     168
     Max          11      11      3                 1101     1101     213
     Sum         295     295     91                35061    35061    6277
 


     bravais-lattice index     =            4
     lattice parameter (alat)  =       4.5700  a.u.
     unit-cell volume          =     732.5176 (a.u.)^3
     number of atoms/cell      =            2
     number of atomic types    =            1
     number of electrons       =         8.00
     number of Kohn-Sham states=            8
     kinetic-energy cutoff     =      50.0000  Ry
     charge density cutoff     =     200.0000  Ry
     scf convergence threshold =      1.0E-08
     mixing beta               =       0.7000
     number of iterations used =            8  plain     mixing
     Exchange-correlation= PBE
                           (   1   4   3   4   0   0   0)

     celldm(1)=   4.570000  celldm(2)=   0.000000  celldm(3)=   8.862144
     celldm(4)=   0.000000  celldm(5)=   0.000000  celldm(6)=   0.000000

     crystal axes: (cart. coord. in units of alat)
               a(1) = (   1.000000   0.000000   0.000000 )  
               a(2) = (  -0.500000   0.866025   0.000000 )  
               a(3) = (   0.000000   0.000000   8.862144 )  

     reciprocal axes: (cart. coord. in units 2 pi/alat)
               b(1) = (  1.000000  0.577350  0.000000 )  
               b(2) = (  0.000000  1.154701  0.000000 )  
               b(3) = (  0.000000  0.000000  0.112840 )  


     PseudoPot. # 1 for C  read from file:
     /home/yhkim/qe-6.7/pseudo/ONCV1/1.2/C_ONCV_PBE-1.2.upf
     MD5 check sum: 1a5f83a7b1f58d24996abe00ed223ac6
     Pseudo is Norm-conserving, Zval =  4.0
     Generated using ONCVPSP code by D. R. Hamann
     Using radial grid of  602 points,  4 beta functions with: 
                l(1) =   0
                l(2) =   0
                l(3) =   1
                l(4) =   1

     atomic species   valence    mass     pseudopotential
        C              4.00    12.01070     C ( 1.00)

     24 Sym. Ops., with inversion, found



   Cartesian axes

     site n.     atom                  positions (alat units)
         1           C   tau(   1) = (  -0.0000000   0.5773503   4.4310722  )
         2           C   tau(   2) = (   0.5000000   0.2886751   4.4310722  )

     number of k points=    27  Methfessel-Paxton smearing, width (Ry)=  0.0100
                       cart. coord. in units 2pi/alat
        k(    1) = (   0.0000000   0.0000000   0.0000000), wk =   0.0088889
        k(    2) = (   0.0000000   0.0769800   0.0000000), wk =   0.0533333
        k(    3) = (   0.0000000   0.1539601   0.0000000), wk =   0.0533333
        k(    4) = (   0.0000000   0.2309401   0.0000000), wk =   0.0533333
        k(    5) = (   0.0000000   0.3079201   0.0000000), wk =   0.0533333
        k(    6) = (   0.0000000   0.3849002   0.0000000), wk =   0.0533333
        k(    7) = (   0.0000000   0.4618802   0.0000000), wk =   0.0533333
        k(    8) = (   0.0000000   0.5388603   0.0000000), wk =   0.0533333
        k(    9) = (   0.0666667   0.1154701   0.0000000), wk =   0.0533333
        k(   10) = (   0.0666667   0.1924501   0.0000000), wk =   0.1066667
        k(   11) = (   0.0666667   0.2694301   0.0000000), wk =   0.1066667
        k(   12) = (   0.0666667   0.3464102   0.0000000), wk =   0.1066667
        k(   13) = (   0.0666667   0.4233902   0.0000000), wk =   0.1066667
        k(   14) = (   0.0666667   0.5003702   0.0000000), wk =   0.1066667
        k(   15) = (   0.0666667   0.5773503   0.0000000), wk =   0.0533333
        k(   16) = (   0.1333333   0.2309401   0.0000000), wk =   0.0533333
        k(   17) = (   0.1333333   0.3079201   0.0000000), wk =   0.1066667
        k(   18) = (   0.1333333   0.3849002   0.0000000), wk =   0.1066667
        k(   19) = (   0.1333333   0.4618802   0.0000000), wk =   0.1066667
        k(   20) = (   0.1333333   0.5388603   0.0000000), wk =   0.1066667
        k(   21) = (   0.2000000   0.3464102   0.0000000), wk =   0.0533333
        k(   22) = (   0.2000000   0.4233902   0.0000000), wk =   0.1066667
        k(   23) = (   0.2000000   0.5003702   0.0000000), wk =   0.1066667
        k(   24) = (   0.2000000   0.5773503   0.0000000), wk =   0.0533333
        k(   25) = (   0.2666667   0.4618802   0.0000000), wk =   0.0533333
        k(   26) = (   0.2666667   0.5388603   0.0000000), wk =   0.1066667
        k(   27) = (   0.3333333   0.5773503   0.0000000), wk =   0.0177778

     Dense  grid:    35061 G-vectors     FFT dimensions: (  24,  24, 192)

     Estimated max dynamical RAM per process >       1.60 MB

     Estimated total dynamical RAM >      51.05 MB
 ----2D----2D----2D----2D----2D----2D----2D----2D----2D----2D----2D----2D
  The code is running with the 2D cutoff
  Please refer to:
  Sohier, T., Calandra, M., & Mauri, F. (2017), 
  Density functional perturbation theory for gated two-dimensional heterostructu
 res:
  Theoretical developments and application to flexural phonons in graphene.
  Physical Review B, 96(7), 75448. https://doi.org/10.1103/PhysRevB.96.075448
 ----2D----2D----2D----2D----2D----2D----2D----2D----2D----2D----2D----2D

     Initial potential from superposition of free atoms

     starting charge    7.98607, renormalised to    8.00000

     negative rho (up, down):  1.099E-04 0.000E+00
     Starting wfcs are random

     total cpu time spent up to now is        0.1 secs

     Self-consistent Calculation

     iteration #  1     ecut=    50.00 Ry     beta= 0.70
     Davidson diagonalization with overlap
     ethr =  1.00E-02,  avg # of iterations = 11.5

     negative rho (up, down):  6.932E-08 0.000E+00

     total cpu time spent up to now is        0.5 secs

     total energy              =     -22.75348385 Ry
     estimated scf accuracy    <       0.19607290 Ry

     iteration #  2     ecut=    50.00 Ry     beta= 0.70
     Davidson diagonalization with overlap
     ethr =  2.45E-03,  avg # of iterations =  2.0

     total cpu time spent up to now is        0.6 secs

     total energy              =     -22.78345658 Ry
     estimated scf accuracy    <       0.00220341 Ry

     iteration #  3     ecut=    50.00 Ry     beta= 0.70
     Davidson diagonalization with overlap
     ethr =  2.75E-05,  avg # of iterations =  9.9

     total cpu time spent up to now is        0.8 secs

     total energy              =     -22.78672735 Ry
     estimated scf accuracy    <       0.00015818 Ry

     iteration #  4     ecut=    50.00 Ry     beta= 0.70
     Davidson diagonalization with overlap
     c_bands:  1 eigenvalues not converged
     ethr =  1.98E-06,  avg # of iterations =  6.6

     total cpu time spent up to now is        1.0 secs

     total energy              =     -22.78676682 Ry
     estimated scf accuracy    <       0.00000026 Ry

     iteration #  5     ecut=    50.00 Ry     beta= 0.70
     Davidson diagonalization with overlap
     ethr =  3.25E-09,  avg # of iterations =  4.5

     total cpu time spent up to now is        1.1 secs

     total energy              =     -22.78676950 Ry
     estimated scf accuracy    <       0.00000003 Ry

     iteration #  6     ecut=    50.00 Ry     beta= 0.70
     Davidson diagonalization with overlap
     ethr =  3.33E-10,  avg # of iterations =  2.0

     total cpu time spent up to now is        1.3 secs

     End of self-consistent calculation

          k = 0.0000 0.0000 0.0000 (  4339 PWs)   bands (ev):

   -24.0899 -12.0996  -7.1283  -7.1283  -0.9913  -0.2045   0.5807   0.9362

          k = 0.0000 0.0770 0.0000 (  4341 PWs)   bands (ev):

   -23.9813 -11.9691  -7.5599  -7.3633  -0.8432  -0.0542   0.7319   1.0869

          k = 0.0000 0.1540 0.0000 (  4319 PWs)   bands (ev):

   -23.6563 -11.5767  -8.7107  -7.9593  -0.3989   0.3966   1.1859   1.5389

          k = 0.0000 0.2309 0.0000 (  4335 PWs)   bands (ev):

   -23.1175 -10.9291 -10.3052  -8.7043   0.3413   1.1458   1.9422   2.2900

          k = 0.0000 0.3079 0.0000 (  4377 PWs)   bands (ev):

   -22.3693 -12.0926 -10.0427  -9.4292   1.3751   2.1695   3.0004   3.0644

          k = 0.0000 0.3849 0.0000 (  4385 PWs)   bands (ev):

   -21.4177 -13.9146 -10.0306  -8.9525   1.0817   2.6961   3.5664   4.1670

          k = 0.0000 0.4619 0.0000 (  4401 PWs)   bands (ev):

   -20.2769 -15.6743 -10.4537  -7.7460  -0.7785   3.9470   4.3758   5.1959

          k = 0.0000 0.5389 0.0000 (  4390 PWs)   bands (ev):

   -19.0053 -17.2643 -10.6717  -6.7295  -2.1410   3.8912   6.2191   7.1046

          k = 0.0667 0.1155 0.0000 (  4325 PWs)   bands (ev):

   -23.7645 -11.7072  -8.2965  -7.8359  -0.5469   0.2465   1.0346   1.3883

          k = 0.0667 0.1925 0.0000 (  4332 PWs)   bands (ev):

   -23.3328 -11.1869  -9.5769  -8.5999   0.0457   0.8468   1.6399   1.9903

          k = 0.0667 0.2694 0.0000 (  4356 PWs)   bands (ev):

   -22.6893 -11.2077 -10.4190  -9.3954   0.9334   1.7421   2.5477   2.8865

          k = 0.0667 0.3464 0.0000 (  4375 PWs)   bands (ev):

   -21.8392 -12.9814 -10.0874  -9.4264   1.9734   2.1131   2.9745   3.7552

          k = 0.0667 0.4234 0.0000 (  4393 PWs)   bands (ev):

   -20.7925 -14.7580 -10.6142  -8.2607   0.0798   3.5731   4.4454   4.5729

          k = 0.0667 0.5004 0.0000 (  4399 PWs)   bands (ev):

   -19.5729 -16.4399 -10.9401  -7.0795  -1.5878   4.3990   5.3598   6.2098

          k = 0.0667 0.5774 0.0000 (  4388 PWs)   bands (ev):

   -18.5147 -17.6551 -11.0513  -6.4515  -2.3827   4.3587   7.2818   7.4341

          k = 0.1333 0.2309 0.0000 (  4345 PWs)   bands (ev):

   -22.7965 -10.6972 -10.5449  -9.6126   0.7864   1.5953   2.3970   2.7415

          k = 0.1333 0.3079 0.0000 (  4372 PWs)   bands (ev):

   -22.0514 -12.1330 -10.5612  -9.6665   1.8210   2.5409   2.6849   3.4560

          k = 0.1333 0.3849 0.0000 (  4380 PWs)   bands (ev):

   -21.1058 -13.7801 -11.2580  -8.5827   0.8008   3.1449   3.9774   4.8150

          k = 0.1333 0.4619 0.0000 (  4397 PWs)   bands (ev):

   -19.9746 -15.4538 -11.7172  -7.3758  -0.9320   4.7452   5.5797   5.7757

          k = 0.1333 0.5389 0.0000 (  4390 PWs)   bands (ev):

   -18.7200 -16.9970 -11.9465  -6.3377  -2.2526   5.6565   6.6387   7.3520

          k = 0.2000 0.3464 0.0000 (  4377 PWs)   bands (ev):

   -21.2109 -13.1544 -11.7986  -8.6927   1.1018   2.9995   3.8136   4.6662

          k = 0.2000 0.4234 0.0000 (  4393 PWs)   bands (ev):

   -20.1794 -14.4847 -12.6445  -7.5411  -0.4657   4.4610   5.2417   6.1757

          k = 0.2000 0.5004 0.0000 (  4380 PWs)   bands (ev):

   -18.9856 -15.9800 -13.0734  -6.3390  -1.9388   6.1845   6.7446   7.4766

          k = 0.2000 0.5774 0.0000 (  4383 PWs)   bands (ev):

   -17.9672 -17.1150 -13.2074  -5.6508  -2.7243   7.4035   7.4270   8.0279

          k = 0.2667 0.4619 0.0000 (  4385 PWs)   bands (ev):

   -19.0810 -15.2577 -13.8445  -6.3554  -1.7759   6.0422   6.4987   7.7953

          k = 0.2667 0.5389 0.0000 (  4368 PWs)   bands (ev):

   -17.8818 -16.3632 -14.4011  -5.2133  -2.9745   6.8586   7.8216   9.1336

          k = 0.3333 0.5774 0.0000 (  4389 PWs)   bands (ev):

   -16.8769 -16.8769 -15.1074  -4.0719  -4.0719   6.6418   9.1930   9.1930

     the Fermi energy is    -4.0719 ev

!    total energy              =     -22.78676950 Ry
     estimated scf accuracy    <          2.7E-10 Ry
     smearing contrib. (-TS)   =      -0.00005015 Ry
     internal energy E=F+TS    =     -22.78671935 Ry

     The total energy is F=E-TS. E is the sum of the following terms:
     one-electron contribution =    -402.31511872 Ry
     hartree contribution      =     201.81656372 Ry
     xc contribution           =      -7.09454656 Ry
     ewald contribution        =     184.80638220 Ry

     convergence has been achieved in   6 iterations

     Forces acting on atoms (cartesian axes, Ry/au):

     atom    1 type  1   force =     0.00000000    0.00000000    0.00000000
     atom    2 type  1   force =     0.00000000    0.00000000    0.00000000

     Total force =     0.000000     Total SCF correction =     0.000000


     Computing stress (Cartesian axis) and pressure

          total   stress  (Ry/bohr**3)                   (kbar)     P=       10.22
   0.00016082   0.00000000   0.00000000           23.66        0.00        0.00
   0.00000000   0.00016082   0.00000000            0.00       23.66        0.00
  -0.00000000   0.00000000  -0.00011325           -0.00        0.00      -16.66


     Writing output data file ./work/LiC457.save/
 
     init_run     :      0.06s CPU      0.08s WALL (       1 calls)
     electrons    :      1.06s CPU      1.18s WALL (       1 calls)
     forces       :      0.01s CPU      0.01s WALL (       1 calls)
     stress       :      0.02s CPU      0.02s WALL (       1 calls)

     Called by init_run:
     wfcinit      :      0.05s CPU      0.06s WALL (       1 calls)
     potinit      :      0.00s CPU      0.01s WALL (       1 calls)
     hinit0       :      0.00s CPU      0.00s WALL (       1 calls)

     Called by electrons:
     c_bands      :      0.95s CPU      1.04s WALL (       6 calls)
     sum_band     :      0.09s CPU      0.10s WALL (       6 calls)
     v_of_rho     :      0.01s CPU      0.02s WALL (       7 calls)
     mix_rho      :      0.00s CPU      0.00s WALL (       6 calls)

     Called by c_bands:
     init_us_2    :      0.01s CPU      0.01s WALL (     405 calls)
     cegterg      :      0.94s CPU      1.02s WALL (     162 calls)

     Called by *egterg:
     cdiaghg      :      0.10s CPU      0.11s WALL (    1148 calls)
     h_psi        :      0.79s CPU      0.86s WALL (    1175 calls)
     g_psi        :      0.00s CPU      0.00s WALL (     986 calls)

     Called by h_psi:
     h_psi:calbec :      0.03s CPU      0.03s WALL (    1175 calls)
     vloc_psi     :      0.74s CPU      0.81s WALL (    1175 calls)
     add_vuspsi   :      0.01s CPU      0.01s WALL (    1175 calls)

     General routines
     calbec       :      0.04s CPU      0.04s WALL (    1310 calls)
     fft          :      0.01s CPU      0.01s WALL (      77 calls)
     ffts         :      0.00s CPU      0.00s WALL (       6 calls)
     fftw         :      0.78s CPU      0.84s WALL (   13176 calls)
 
     Parallel routines
     fft_scatt_xy :      0.05s CPU      0.06s WALL (   13259 calls)
     fft_scatt_yz :      0.40s CPU      0.44s WALL (   13259 calls)
 
     PWSCF        :      1.19s CPU      1.54s WALL

 
   This run was terminated on:  11: 0:45  22Jan2024            

=------------------------------------------------------------------------------=
   JOB DONE.
=------------------------------------------------------------------------------=
