
     Program PWSCF v.6.7MaX starts on 22Jan2024 at 11: 1: 0 

     This program is part of the open-source Quantum ESPRESSO suite
     for quantum simulation of materials; please cite
         "P. Giannozzi et al., J. Phys.:Condens. Matter 21 395502 (2009);
         "P. Giannozzi et al., J. Phys.:Condens. Matter 29 465901 (2017);
          URL http://www.quantum-espresso.org", 
     in publications or presentations arising from this work. More details at
     http://www.quantum-espresso.org/quote

     Parallel version (MPI), running on    32 processors

     MPI processes distributed on     1 nodes
     R & G space division:  proc/nbgrp/npool/nimage =      32
     Waiting for input...
     Reading input from standard input
Warning: card &CELL ignored
Warning: card  CELL_DYNAMICS = 'BFGS', ignored
Warning: card  PRESS = 0.0, ignored
Warning: card  PRESS_CONV_THR = 1D-3, ignored
Warning: card  CELL_DOFREE='2DXY' ignored
Warning: card / ignored

     Current dimensions of program PWSCF are:
     Max number of different atomic species (ntypx) = 10
     Max number of k-points (npk) =  40000
     Max angular momentum in pseudopotentials (lmaxx) =  3
     Message from routine read_pp_mesh:
     mesh size missing, using the one in header

     Subspace diagonalization in iterative solution of the eigenvalue problem:
     a serial algorithm will be used

 
     Parallelization info
     --------------------
     sticks:   dense  smooth     PW     G-vecs:    dense   smooth      PW
     Min           9       9      2                 1123     1123     170
     Max          10      10      3                 1156     1156     215
     Sum         301     301     91                36327    36327    6409
 


     bravais-lattice index     =            4
     lattice parameter (alat)  =       4.6500  a.u.
     unit-cell volume          =     758.3882 (a.u.)^3
     number of atoms/cell      =            2
     number of atomic types    =            1
     number of electrons       =         8.00
     number of Kohn-Sham states=            8
     kinetic-energy cutoff     =      50.0000  Ry
     charge density cutoff     =     200.0000  Ry
     scf convergence threshold =      1.0E-08
     mixing beta               =       0.7000
     number of iterations used =            8  plain     mixing
     Exchange-correlation= PBE
                           (   1   4   3   4   0   0   0)

     celldm(1)=   4.650000  celldm(2)=   0.000000  celldm(3)=   8.709677
     celldm(4)=   0.000000  celldm(5)=   0.000000  celldm(6)=   0.000000

     crystal axes: (cart. coord. in units of alat)
               a(1) = (   1.000000   0.000000   0.000000 )  
               a(2) = (  -0.500000   0.866025   0.000000 )  
               a(3) = (   0.000000   0.000000   8.709677 )  

     reciprocal axes: (cart. coord. in units 2 pi/alat)
               b(1) = (  1.000000  0.577350  0.000000 )  
               b(2) = (  0.000000  1.154701  0.000000 )  
               b(3) = (  0.000000  0.000000  0.114815 )  


     PseudoPot. # 1 for C  read from file:
     /home/yhkim/qe-6.7/pseudo/ONCV1/1.2/C_ONCV_PBE-1.2.upf
     MD5 check sum: 1a5f83a7b1f58d24996abe00ed223ac6
     Pseudo is Norm-conserving, Zval =  4.0
     Generated using ONCVPSP code by D. R. Hamann
     Using radial grid of  602 points,  4 beta functions with: 
                l(1) =   0
                l(2) =   0
                l(3) =   1
                l(4) =   1

     atomic species   valence    mass     pseudopotential
        C              4.00    12.01070     C ( 1.00)

     24 Sym. Ops., with inversion, found



   Cartesian axes

     site n.     atom                  positions (alat units)
         1           C   tau(   1) = (  -0.0000000   0.5773503   4.3548387  )
         2           C   tau(   2) = (   0.5000000   0.2886751   4.3548387  )

     number of k points=    27  Methfessel-Paxton smearing, width (Ry)=  0.0100
                       cart. coord. in units 2pi/alat
        k(    1) = (   0.0000000   0.0000000   0.0000000), wk =   0.0088889
        k(    2) = (   0.0000000   0.0769800   0.0000000), wk =   0.0533333
        k(    3) = (   0.0000000   0.1539601   0.0000000), wk =   0.0533333
        k(    4) = (   0.0000000   0.2309401   0.0000000), wk =   0.0533333
        k(    5) = (   0.0000000   0.3079201   0.0000000), wk =   0.0533333
        k(    6) = (   0.0000000   0.3849002   0.0000000), wk =   0.0533333
        k(    7) = (   0.0000000   0.4618802   0.0000000), wk =   0.0533333
        k(    8) = (   0.0000000   0.5388603   0.0000000), wk =   0.0533333
        k(    9) = (   0.0666667   0.1154701   0.0000000), wk =   0.0533333
        k(   10) = (   0.0666667   0.1924501   0.0000000), wk =   0.1066667
        k(   11) = (   0.0666667   0.2694301   0.0000000), wk =   0.1066667
        k(   12) = (   0.0666667   0.3464102   0.0000000), wk =   0.1066667
        k(   13) = (   0.0666667   0.4233902   0.0000000), wk =   0.1066667
        k(   14) = (   0.0666667   0.5003702   0.0000000), wk =   0.1066667
        k(   15) = (   0.0666667   0.5773503   0.0000000), wk =   0.0533333
        k(   16) = (   0.1333333   0.2309401   0.0000000), wk =   0.0533333
        k(   17) = (   0.1333333   0.3079201   0.0000000), wk =   0.1066667
        k(   18) = (   0.1333333   0.3849002   0.0000000), wk =   0.1066667
        k(   19) = (   0.1333333   0.4618802   0.0000000), wk =   0.1066667
        k(   20) = (   0.1333333   0.5388603   0.0000000), wk =   0.1066667
        k(   21) = (   0.2000000   0.3464102   0.0000000), wk =   0.0533333
        k(   22) = (   0.2000000   0.4233902   0.0000000), wk =   0.1066667
        k(   23) = (   0.2000000   0.5003702   0.0000000), wk =   0.1066667
        k(   24) = (   0.2000000   0.5773503   0.0000000), wk =   0.0533333
        k(   25) = (   0.2666667   0.4618802   0.0000000), wk =   0.0533333
        k(   26) = (   0.2666667   0.5388603   0.0000000), wk =   0.1066667
        k(   27) = (   0.3333333   0.5773503   0.0000000), wk =   0.0177778

     Dense  grid:    36327 G-vectors     FFT dimensions: (  24,  24, 192)

     Estimated max dynamical RAM per process >       1.63 MB

     Estimated total dynamical RAM >      52.11 MB
 ----2D----2D----2D----2D----2D----2D----2D----2D----2D----2D----2D----2D
  The code is running with the 2D cutoff
  Please refer to:
  Sohier, T., Calandra, M., & Mauri, F. (2017), 
  Density functional perturbation theory for gated two-dimensional heterostructu
 res:
  Theoretical developments and application to flexural phonons in graphene.
  Physical Review B, 96(7), 75448. https://doi.org/10.1103/PhysRevB.96.075448
 ----2D----2D----2D----2D----2D----2D----2D----2D----2D----2D----2D----2D

     Initial potential from superposition of free atoms

     starting charge    7.98607, renormalised to    8.00000

     negative rho (up, down):  1.137E-04 0.000E+00
     Starting wfcs are random

     total cpu time spent up to now is        0.1 secs

     Self-consistent Calculation

     iteration #  1     ecut=    50.00 Ry     beta= 0.70
     Davidson diagonalization with overlap
     ethr =  1.00E-02,  avg # of iterations = 11.9

     negative rho (up, down):  7.203E-08 0.000E+00

     total cpu time spent up to now is        0.5 secs

     total energy              =     -22.76137137 Ry
     estimated scf accuracy    <       0.17091840 Ry

     iteration #  2     ecut=    50.00 Ry     beta= 0.70
     Davidson diagonalization with overlap
     ethr =  2.14E-03,  avg # of iterations =  2.1

     total cpu time spent up to now is        0.6 secs

     total energy              =     -22.78787512 Ry
     estimated scf accuracy    <       0.00209620 Ry

     iteration #  3     ecut=    50.00 Ry     beta= 0.70
     Davidson diagonalization with overlap
     ethr =  2.62E-05,  avg # of iterations =  9.9

     total cpu time spent up to now is        0.8 secs

     total energy              =     -22.79093511 Ry
     estimated scf accuracy    <       0.00014702 Ry

     iteration #  4     ecut=    50.00 Ry     beta= 0.70
     Davidson diagonalization with overlap
     ethr =  1.84E-06,  avg # of iterations =  5.9

     total cpu time spent up to now is        1.0 secs

     total energy              =     -22.79097164 Ry
     estimated scf accuracy    <       0.00000026 Ry

     iteration #  5     ecut=    50.00 Ry     beta= 0.70
     Davidson diagonalization with overlap
     ethr =  3.20E-09,  avg # of iterations =  4.5

     total cpu time spent up to now is        1.2 secs

     total energy              =     -22.79097417 Ry
     estimated scf accuracy    <       0.00000002 Ry

     iteration #  6     ecut=    50.00 Ry     beta= 0.70
     Davidson diagonalization with overlap
     ethr =  2.88E-10,  avg # of iterations =  2.0

     total cpu time spent up to now is        1.3 secs

     End of self-consistent calculation

          k = 0.0000 0.0000 0.0000 (  4507 PWs)   bands (ev):

   -23.8218 -11.8970  -7.3080  -7.3080  -0.9811  -0.2031   0.5854   0.9403

          k = 0.0000 0.0770 0.0000 (  4505 PWs)   bands (ev):

   -23.7164 -11.7696  -7.7322  -7.5308  -0.8379  -0.0579   0.7314   1.0858

          k = 0.0000 0.1540 0.0000 (  4525 PWs)   bands (ev):

   -23.4015 -11.3929  -8.8593  -8.0957  -0.4085   0.3772   1.1699   1.5220

          k = 0.0000 0.2309 0.0000 (  4533 PWs)   bands (ev):

   -22.8791 -10.7733 -10.4063  -8.8047   0.3066   1.0997   1.9004   2.2467

          k = 0.0000 0.3079 0.0000 (  4539 PWs)   bands (ev):

   -22.1534 -12.1432  -9.9253  -9.4942   1.3052   2.0711   2.6378   2.9206

          k = 0.0000 0.3849 0.0000 (  4549 PWs)   bands (ev):

   -21.2319 -13.9137 -10.0691  -8.8817   0.7181   2.5781   3.4314   3.5411

          k = 0.0000 0.4619 0.0000 (  4549 PWs)   bands (ev):

   -20.1304 -15.6172 -10.4730  -7.7313  -1.0418   3.3109   4.1702   5.0038

          k = 0.0000 0.5389 0.0000 (  4555 PWs)   bands (ev):

   -18.9243 -17.1338 -10.6826  -6.7682  -2.3305   3.2149   5.9789   6.8401

          k = 0.0667 0.1155 0.0000 (  4531 PWs)   bands (ev):

   -23.5064 -11.5183  -8.4561  -7.9770  -0.5516   0.2322   1.0237   1.3767

          k = 0.0667 0.1925 0.0000 (  4525 PWs)   bands (ev):

   -23.0878 -11.0194  -9.7031  -8.7053   0.0210   0.8115   1.6084   1.9577

          k = 0.0667 0.2694 0.0000 (  4523 PWs)   bands (ev):

   -22.4637 -11.2872 -10.2845  -9.4639   0.8785   1.6742   2.4849   2.8183

          k = 0.0667 0.3464 0.0000 (  4536 PWs)   bands (ev):

   -21.6399 -13.0106 -10.1280  -9.3345   1.5634   2.0178   2.8552   3.6476

          k = 0.0667 0.4234 0.0000 (  4549 PWs)   bands (ev):

   -20.6272 -14.7335 -10.6328  -8.2214  -0.2357   3.4163   3.9147   4.2800

          k = 0.0667 0.5004 0.0000 (  4541 PWs)   bands (ev):

   -19.4547 -16.3548 -10.9453  -7.0976  -1.8118   3.7215   5.1445   5.9788

          k = 0.0667 0.5774 0.0000 (  4558 PWs)   bands (ev):

   -18.4906 -17.4724 -11.0523  -6.5052  -2.5631   3.6708   6.9985   7.1555

          k = 0.1333 0.2309 0.0000 (  4523 PWs)   bands (ev):

   -22.5674 -10.8044 -10.4050  -9.6717   0.7365   1.5335   2.3395   2.6825

          k = 0.1333 0.3079 0.0000 (  4517 PWs)   bands (ev):

   -21.8453 -12.2015 -10.5779  -9.5639   1.7357   2.1172   2.5490   3.3621

          k = 0.1333 0.3849 0.0000 (  4528 PWs)   bands (ev):

   -20.9295 -13.7960 -11.2536  -8.5281   0.4337   3.0139   3.8292   4.6724

          k = 0.1333 0.4619 0.0000 (  4531 PWs)   bands (ev):

   -19.8374 -15.4119 -11.6994  -7.3778  -1.2061   4.5505   5.0791   5.3707

          k = 0.1333 0.5389 0.0000 (  4527 PWs)   bands (ev):

   -18.6471 -16.8818 -11.9221  -6.3923  -2.4530   4.9441   6.3801   7.0642

          k = 0.2000 0.3464 0.0000 (  4529 PWs)   bands (ev):

   -21.0310 -13.2162 -11.7550  -8.6330   0.7094   2.8737   3.6717   4.5307

          k = 0.2000 0.4234 0.0000 (  4519 PWs)   bands (ev):

   -20.0336 -14.5020 -12.5755  -7.5329  -0.7766   4.2841   5.0453   5.9869

          k = 0.2000 0.5004 0.0000 (  4529 PWs)   bands (ev):

   -18.8862 -15.9325 -13.0035  -6.3901  -2.1758   5.9416   6.4808   6.7359

          k = 0.2000 0.5774 0.0000 (  4522 PWs)   bands (ev):

   -17.9509 -16.9779 -13.1360  -5.7362  -2.9178   6.6549   7.1282   7.7033

          k = 0.2667 0.4619 0.0000 (  4507 PWs)   bands (ev):

   -18.9747 -15.2829 -13.7034  -6.4021  -2.0297   5.8077   6.2475   7.5373

          k = 0.2667 0.5389 0.0000 (  4512 PWs)   bands (ev):

   -17.8333 -16.3334 -14.2460  -5.3158  -3.1736   6.6042   7.5057   8.4050

          k = 0.3333 0.5774 0.0000 (  4521 PWs)   bands (ev):

   -16.8765 -16.8765 -14.8683  -4.2244  -4.2244   6.4084   8.7006   8.7007

     the Fermi energy is    -4.2244 ev

!    total energy              =     -22.79097417 Ry
     estimated scf accuracy    <          5.2E-10 Ry
     smearing contrib. (-TS)   =      -0.00005015 Ry
     internal energy E=F+TS    =     -22.79092402 Ry

     The total energy is F=E-TS. E is the sum of the following terms:
     one-electron contribution =    -388.43076498 Ry
     hartree contribution      =     194.83806054 Ry
     xc contribution           =      -7.01893263 Ry
     ewald contribution        =     177.82071304 Ry

     convergence has been achieved in   6 iterations

     Forces acting on atoms (cartesian axes, Ry/au):

     atom    1 type  1   force =     0.00000000    0.00000000    0.00000000
     atom    2 type  1   force =    -0.00000000   -0.00000000    0.00000000

     Total force =     0.000000     Total SCF correction =     0.000000


     Computing stress (Cartesian axis) and pressure

          total   stress  (Ry/bohr**3)                   (kbar)     P=      -12.98
  -0.00007826  -0.00000000  -0.00000000          -11.51       -0.00       -0.00
  -0.00000000  -0.00007826   0.00000000           -0.00      -11.51        0.00
   0.00000000   0.00000000  -0.00010820            0.00        0.00      -15.92


     Writing output data file ./work/LiC465.save/
 
     init_run     :      0.06s CPU      0.08s WALL (       1 calls)
     electrons    :      1.07s CPU      1.18s WALL (       1 calls)
     forces       :      0.01s CPU      0.01s WALL (       1 calls)
     stress       :      0.02s CPU      0.02s WALL (       1 calls)

     Called by init_run:
     wfcinit      :      0.05s CPU      0.06s WALL (       1 calls)
     potinit      :      0.00s CPU      0.01s WALL (       1 calls)
     hinit0       :      0.00s CPU      0.00s WALL (       1 calls)

     Called by electrons:
     c_bands      :      0.96s CPU      1.04s WALL (       6 calls)
     sum_band     :      0.09s CPU      0.10s WALL (       6 calls)
     v_of_rho     :      0.01s CPU      0.02s WALL (       7 calls)
     mix_rho      :      0.00s CPU      0.00s WALL (       6 calls)

     Called by c_bands:
     init_us_2    :      0.01s CPU      0.01s WALL (     405 calls)
     cegterg      :      0.94s CPU      1.02s WALL (     162 calls)

     Called by *egterg:
     cdiaghg      :      0.10s CPU      0.11s WALL (    1140 calls)
     h_psi        :      0.79s CPU      0.86s WALL (    1167 calls)
     g_psi        :      0.00s CPU      0.00s WALL (     978 calls)

     Called by h_psi:
     h_psi:calbec :      0.03s CPU      0.04s WALL (    1167 calls)
     vloc_psi     :      0.74s CPU      0.81s WALL (    1167 calls)
     add_vuspsi   :      0.01s CPU      0.01s WALL (    1167 calls)

     General routines
     calbec       :      0.04s CPU      0.04s WALL (    1302 calls)
     fft          :      0.01s CPU      0.02s WALL (      77 calls)
     ffts         :      0.00s CPU      0.00s WALL (       6 calls)
     fftw         :      0.77s CPU      0.84s WALL (   13220 calls)
 
     Parallel routines
     fft_scatt_xy :      0.06s CPU      0.06s WALL (   13303 calls)
     fft_scatt_yz :      0.40s CPU      0.44s WALL (   13303 calls)
 
     PWSCF        :      1.20s CPU      1.85s WALL

 
   This run was terminated on:  11: 1: 2  22Jan2024            

=------------------------------------------------------------------------------=
   JOB DONE.
=------------------------------------------------------------------------------=
