
     Program PWSCF v.6.7MaX starts on 22Jan2024 at 11: 1:48 

     This program is part of the open-source Quantum ESPRESSO suite
     for quantum simulation of materials; please cite
         "P. Giannozzi et al., J. Phys.:Condens. Matter 21 395502 (2009);
         "P. Giannozzi et al., J. Phys.:Condens. Matter 29 465901 (2017);
          URL http://www.quantum-espresso.org", 
     in publications or presentations arising from this work. More details at
     http://www.quantum-espresso.org/quote

     Parallel version (MPI), running on    32 processors

     MPI processes distributed on     1 nodes
     R & G space division:  proc/nbgrp/npool/nimage =      32
     Waiting for input...
     Reading input from standard input
Warning: card &CELL ignored
Warning: card  CELL_DYNAMICS = 'BFGS', ignored
Warning: card  PRESS = 0.0, ignored
Warning: card  PRESS_CONV_THR = 1D-3, ignored
Warning: card  CELL_DOFREE='2DXY' ignored
Warning: card / ignored

     Current dimensions of program PWSCF are:
     Max number of different atomic species (ntypx) = 10
     Max number of k-points (npk) =  40000
     Max angular momentum in pseudopotentials (lmaxx) =  3
     Message from routine read_pp_mesh:
     mesh size missing, using the one in header

     Subspace diagonalization in iterative solution of the eigenvalue problem:
     a serial algorithm will be used

 
     Parallelization info
     --------------------
     sticks:   dense  smooth     PW     G-vecs:    dense   smooth      PW
     Min           9       9      3                 1193     1193     208
     Max          10      10      5                 1250     1250     225
     Sum         313     313    109                39423    39423    7027
 


     bravais-lattice index     =            4
     lattice parameter (alat)  =       4.8700  a.u.
     unit-cell volume          =     831.8472 (a.u.)^3
     number of atoms/cell      =            2
     number of atomic types    =            1
     number of electrons       =         8.00
     number of Kohn-Sham states=            8
     kinetic-energy cutoff     =      50.0000  Ry
     charge density cutoff     =     200.0000  Ry
     scf convergence threshold =      1.0E-08
     mixing beta               =       0.7000
     number of iterations used =            8  plain     mixing
     Exchange-correlation= PBE
                           (   1   4   3   4   0   0   0)

     celldm(1)=   4.870000  celldm(2)=   0.000000  celldm(3)=   8.316222
     celldm(4)=   0.000000  celldm(5)=   0.000000  celldm(6)=   0.000000

     crystal axes: (cart. coord. in units of alat)
               a(1) = (   1.000000   0.000000   0.000000 )  
               a(2) = (  -0.500000   0.866025   0.000000 )  
               a(3) = (   0.000000   0.000000   8.316222 )  

     reciprocal axes: (cart. coord. in units 2 pi/alat)
               b(1) = (  1.000000  0.577350  0.000000 )  
               b(2) = (  0.000000  1.154701  0.000000 )  
               b(3) = (  0.000000  0.000000  0.120247 )  


     PseudoPot. # 1 for C  read from file:
     /home/yhkim/qe-6.7/pseudo/ONCV1/1.2/C_ONCV_PBE-1.2.upf
     MD5 check sum: 1a5f83a7b1f58d24996abe00ed223ac6
     Pseudo is Norm-conserving, Zval =  4.0
     Generated using ONCVPSP code by D. R. Hamann
     Using radial grid of  602 points,  4 beta functions with: 
                l(1) =   0
                l(2) =   0
                l(3) =   1
                l(4) =   1

     atomic species   valence    mass     pseudopotential
        C              4.00    12.01070     C ( 1.00)

     24 Sym. Ops., with inversion, found



   Cartesian axes

     site n.     atom                  positions (alat units)
         1           C   tau(   1) = (  -0.0000000   0.5773503   4.1581109  )
         2           C   tau(   2) = (   0.5000000   0.2886751   4.1581109  )

     number of k points=    27  Methfessel-Paxton smearing, width (Ry)=  0.0100
                       cart. coord. in units 2pi/alat
        k(    1) = (   0.0000000   0.0000000   0.0000000), wk =   0.0088889
        k(    2) = (   0.0000000   0.0769800   0.0000000), wk =   0.0533333
        k(    3) = (   0.0000000   0.1539601   0.0000000), wk =   0.0533333
        k(    4) = (   0.0000000   0.2309401   0.0000000), wk =   0.0533333
        k(    5) = (   0.0000000   0.3079201   0.0000000), wk =   0.0533333
        k(    6) = (   0.0000000   0.3849002   0.0000000), wk =   0.0533333
        k(    7) = (   0.0000000   0.4618802   0.0000000), wk =   0.0533333
        k(    8) = (   0.0000000   0.5388603   0.0000000), wk =   0.0533333
        k(    9) = (   0.0666667   0.1154701   0.0000000), wk =   0.0533333
        k(   10) = (   0.0666667   0.1924501   0.0000000), wk =   0.1066667
        k(   11) = (   0.0666667   0.2694301   0.0000000), wk =   0.1066667
        k(   12) = (   0.0666667   0.3464102   0.0000000), wk =   0.1066667
        k(   13) = (   0.0666667   0.4233902   0.0000000), wk =   0.1066667
        k(   14) = (   0.0666667   0.5003702   0.0000000), wk =   0.1066667
        k(   15) = (   0.0666667   0.5773503   0.0000000), wk =   0.0533333
        k(   16) = (   0.1333333   0.2309401   0.0000000), wk =   0.0533333
        k(   17) = (   0.1333333   0.3079201   0.0000000), wk =   0.1066667
        k(   18) = (   0.1333333   0.3849002   0.0000000), wk =   0.1066667
        k(   19) = (   0.1333333   0.4618802   0.0000000), wk =   0.1066667
        k(   20) = (   0.1333333   0.5388603   0.0000000), wk =   0.1066667
        k(   21) = (   0.2000000   0.3464102   0.0000000), wk =   0.0533333
        k(   22) = (   0.2000000   0.4233902   0.0000000), wk =   0.1066667
        k(   23) = (   0.2000000   0.5003702   0.0000000), wk =   0.1066667
        k(   24) = (   0.2000000   0.5773503   0.0000000), wk =   0.0533333
        k(   25) = (   0.2666667   0.4618802   0.0000000), wk =   0.0533333
        k(   26) = (   0.2666667   0.5388603   0.0000000), wk =   0.1066667
        k(   27) = (   0.3333333   0.5773503   0.0000000), wk =   0.0177778

     Dense  grid:    39423 G-vectors     FFT dimensions: (  24,  24, 192)

     Estimated max dynamical RAM per process >       1.73 MB

     Estimated total dynamical RAM >      55.48 MB
 ----2D----2D----2D----2D----2D----2D----2D----2D----2D----2D----2D----2D
  The code is running with the 2D cutoff
  Please refer to:
  Sohier, T., Calandra, M., & Mauri, F. (2017), 
  Density functional perturbation theory for gated two-dimensional heterostructu
 res:
  Theoretical developments and application to flexural phonons in graphene.
  Physical Review B, 96(7), 75448. https://doi.org/10.1103/PhysRevB.96.075448
 ----2D----2D----2D----2D----2D----2D----2D----2D----2D----2D----2D----2D

     Initial potential from superposition of free atoms

     starting charge    7.98607, renormalised to    8.00000

     negative rho (up, down):  1.199E-04 0.000E+00
     Starting wfcs are random

     total cpu time spent up to now is        0.1 secs

     Self-consistent Calculation

     iteration #  1     ecut=    50.00 Ry     beta= 0.70
     Davidson diagonalization with overlap
     ethr =  1.00E-02,  avg # of iterations = 11.3

     negative rho (up, down):  7.969E-08 0.000E+00

     total cpu time spent up to now is        0.5 secs

     total energy              =     -22.74998595 Ry
     estimated scf accuracy    <       0.10914134 Ry

     iteration #  2     ecut=    50.00 Ry     beta= 0.70
     Davidson diagonalization with overlap
     ethr =  1.36E-03,  avg # of iterations =  2.1

     total cpu time spent up to now is        0.7 secs

     total energy              =     -22.76943248 Ry
     estimated scf accuracy    <       0.00206361 Ry

     iteration #  3     ecut=    50.00 Ry     beta= 0.70
     Davidson diagonalization with overlap
     c_bands:  1 eigenvalues not converged
     c_bands:  1 eigenvalues not converged
     ethr =  2.58E-05,  avg # of iterations =  9.7

     total cpu time spent up to now is        1.0 secs

     total energy              =     -22.77288840 Ry
     estimated scf accuracy    <       0.00013398 Ry

     iteration #  4     ecut=    50.00 Ry     beta= 0.70
     Davidson diagonalization with overlap
     c_bands:  1 eigenvalues not converged
     ethr =  1.67E-06,  avg # of iterations =  7.0

     total cpu time spent up to now is        1.2 secs

     total energy              =     -22.77293206 Ry
     estimated scf accuracy    <       0.00000024 Ry

     iteration #  5     ecut=    50.00 Ry     beta= 0.70
     Davidson diagonalization with overlap
     ethr =  3.03E-09,  avg # of iterations =  5.2

     total cpu time spent up to now is        1.4 secs

     total energy              =     -22.77293520 Ry
     estimated scf accuracy    <       0.00000003 Ry

     iteration #  6     ecut=    50.00 Ry     beta= 0.70
     Davidson diagonalization with overlap
     ethr =  3.61E-10,  avg # of iterations =  2.0

     total cpu time spent up to now is        1.5 secs

     End of self-consistent calculation

          k = 0.0000 0.0000 0.0000 (  5059 PWs)   bands (ev):

   -23.1112 -11.3765  -7.7037  -7.7037  -0.9522  -0.1991   0.5982   0.9513

          k = 0.0000 0.0770 0.0000 (  5065 PWs)   bands (ev):

   -23.0144 -11.2638  -8.1109  -7.8965  -0.8214  -0.0671   0.7315   1.0837

          k = 0.0000 0.1540 0.0000 (  5041 PWs)   bands (ev):

   -22.7247 -10.9272  -9.1838  -8.3881  -0.4293   0.3284   1.1313   1.4804

          k = 0.0000 0.2309 0.0000 (  4999 PWs)   bands (ev):

   -22.2445 -10.6374 -10.3759  -9.0066   0.2234   0.9842   1.7967   2.1369

          k = 0.0000 0.3079 0.0000 (  4996 PWs)   bands (ev):

   -21.5784 -12.2526  -9.6234  -9.6142   1.1339   1.3801   1.9388   2.2022

          k = 0.0000 0.3849 0.0000 (  4960 PWs)   bands (ev):

   -20.7357 -13.8851 -10.1197  -8.6993  -0.1952   1.8727   2.3181   3.0955

          k = 0.0000 0.4619 0.0000 (  4946 PWs)   bands (ev):

   -19.7392 -15.4405 -10.4781  -7.6890  -1.7113   1.6491   3.7299   4.5215

          k = 0.0000 0.5389 0.0000 (  4896 PWs)   bands (ev):

   -18.7049 -16.7614 -10.6608  -6.8560  -2.8120   1.5289   5.3834   6.1740

          k = 0.0667 0.1155 0.0000 (  5043 PWs)   bands (ev):

   -22.8212 -11.0393  -8.8063  -8.2826  -0.5599   0.1966   0.9980   1.3483

          k = 0.0667 0.1925 0.0000 (  4998 PWs)   bands (ev):

   -22.4362 -10.5949  -9.9905  -8.9195  -0.0373   0.7230   1.5310   1.8764

          k = 0.0667 0.2694 0.0000 (  4986 PWs)   bands (ev):

   -21.8629 -11.4695  -9.9415  -9.5920   0.7451   1.4998   2.0700   2.3285

          k = 0.0667 0.3464 0.0000 (  4967 PWs)   bands (ev):

   -21.1081 -13.0622 -10.1822  -9.0990   0.5234   1.7820   2.4772   2.5682

          k = 0.0667 0.4234 0.0000 (  4951 PWs)   bands (ev):

   -20.1855 -14.6429 -10.6325  -8.1172  -1.0266   2.1903   3.0880   3.8657

          k = 0.0667 0.5004 0.0000 (  4921 PWs)   bands (ev):

   -19.1400 -16.1030 -10.9118  -7.1367  -2.3811   2.0150   4.6227   5.3986

          k = 0.0667 0.5774 0.0000 (  4914 PWs)   bands (ev):

   -18.3790 -17.0053 -11.0067  -6.6278  -3.0196   1.9537   6.2919   6.4613

          k = 0.1333 0.2309 0.0000 (  4973 PWs)   bands (ev):

   -21.9581 -11.0493 -10.0480  -9.7619   0.6152   1.3788   2.1972   2.3107

          k = 0.1333 0.3079 0.0000 (  4974 PWs)   bands (ev):

   -21.2956 -12.3557 -10.5741  -9.3015   0.9707   1.5262   2.2937   3.1283

          k = 0.1333 0.3849 0.0000 (  4963 PWs)   bands (ev):

   -20.4586 -13.8159 -11.1941  -8.3853  -0.4764   2.6894   3.4577   3.5059

          k = 0.1333 0.4619 0.0000 (  4938 PWs)   bands (ev):

   -19.4704 -15.2808 -11.6048  -7.3743  -1.8893   3.2667   4.1126   4.8471

          k = 0.1333 0.5389 0.0000 (  4930 PWs)   bands (ev):

   -18.4457 -16.5606 -11.8105  -6.5205  -2.9592   3.1468   5.7414   6.3428

          k = 0.2000 0.3464 0.0000 (  4985 PWs)   bands (ev):

   -20.5505 -13.3449 -11.6029  -8.4768  -0.2583   2.5626   3.3166   4.1928

          k = 0.2000 0.4234 0.0000 (  4957 PWs)   bands (ev):

   -19.6428 -14.5260 -12.3524  -7.5076  -1.5515   3.8446   4.5530   5.0042

          k = 0.2000 0.5004 0.0000 (  4953 PWs)   bands (ev):

   -18.6180 -15.7944 -12.7644  -6.5073  -2.7629   4.7994   5.3697   5.8253

          k = 0.2000 0.5774 0.0000 (  4936 PWs)   bands (ev):

   -17.8627 -16.6437 -12.8942  -5.9432  -3.4006   4.7404   6.3944   6.8664

          k = 0.2667 0.4619 0.0000 (  4968 PWs)   bands (ev):

   -18.6876 -15.3142 -13.3118  -6.5148  -2.6590   5.2199   5.6235   6.4391

          k = 0.2667 0.5389 0.0000 (  4964 PWs)   bands (ev):

   -17.6897 -16.2444 -13.7984  -5.5648  -3.6613   5.9768   6.3732   6.7524

          k = 0.3333 0.5774 0.0000 (  4950 PWs)   bands (ev):

   -16.8357 -16.8357 -14.2551  -4.5987  -4.5987   5.8320   7.2267   7.2268

     the Fermi energy is    -4.5987 ev

!    total energy              =     -22.77293521 Ry
     estimated scf accuracy    <          4.4E-10 Ry
     smearing contrib. (-TS)   =      -0.00005015 Ry
     internal energy E=F+TS    =     -22.77288506 Ry

     The total energy is F=E-TS. E is the sum of the following terms:
     one-electron contribution =    -353.78727772 Ry
     hartree contribution      =     177.43182663 Ry
     xc contribution           =      -6.82662093 Ry
     ewald contribution        =     160.40918696 Ry

     convergence has been achieved in   6 iterations

     Forces acting on atoms (cartesian axes, Ry/au):

     atom    1 type  1   force =    -0.00000000   -0.00000000    0.00000000
     atom    2 type  1   force =     0.00000000    0.00000000    0.00000000

     Total force =     0.000000     Total SCF correction =     0.000000


     Computing stress (Cartesian axis) and pressure

          total   stress  (Ry/bohr**3)                   (kbar)     P=      -60.08
  -0.00056530  -0.00000000  -0.00000000          -83.16       -0.00       -0.00
  -0.00000000  -0.00056530   0.00000000           -0.00      -83.16        0.00
   0.00000000   0.00000000  -0.00009473            0.00        0.00      -13.94


     Writing output data file ./work/LiC487.save/
 
     init_run     :      0.07s CPU      0.09s WALL (       1 calls)
     electrons    :      1.27s CPU      1.39s WALL (       1 calls)
     forces       :      0.01s CPU      0.01s WALL (       1 calls)
     stress       :      0.02s CPU      0.02s WALL (       1 calls)

     Called by init_run:
     wfcinit      :      0.05s CPU      0.07s WALL (       1 calls)
     potinit      :      0.00s CPU      0.01s WALL (       1 calls)
     hinit0       :      0.00s CPU      0.00s WALL (       1 calls)

     Called by electrons:
     c_bands      :      1.14s CPU      1.24s WALL (       6 calls)
     sum_band     :      0.12s CPU      0.12s WALL (       6 calls)
     v_of_rho     :      0.01s CPU      0.02s WALL (       7 calls)
     mix_rho      :      0.00s CPU      0.00s WALL (       6 calls)

     Called by c_bands:
     init_us_2    :      0.01s CPU      0.01s WALL (     405 calls)
     cegterg      :      1.12s CPU      1.21s WALL (     162 calls)

     Called by *egterg:
     cdiaghg      :      0.11s CPU      0.11s WALL (    1167 calls)
     h_psi        :      0.97s CPU      1.06s WALL (    1194 calls)
     g_psi        :      0.00s CPU      0.00s WALL (    1005 calls)

     Called by h_psi:
     h_psi:calbec :      0.04s CPU      0.04s WALL (    1194 calls)
     vloc_psi     :      0.91s CPU      0.99s WALL (    1194 calls)
     add_vuspsi   :      0.01s CPU      0.01s WALL (    1194 calls)

     General routines
     calbec       :      0.05s CPU      0.05s WALL (    1329 calls)
     fft          :      0.01s CPU      0.01s WALL (      77 calls)
     ffts         :      0.00s CPU      0.00s WALL (       6 calls)
     fftw         :      0.97s CPU      1.05s WALL (   13362 calls)
 
     Parallel routines
     fft_scatt_xy :      0.06s CPU      0.07s WALL (   13445 calls)
     fft_scatt_yz :      0.57s CPU      0.62s WALL (   13445 calls)
 
     PWSCF        :      1.42s CPU      1.82s WALL

 
   This run was terminated on:  11: 1:50  22Jan2024            

=------------------------------------------------------------------------------=
   JOB DONE.
=------------------------------------------------------------------------------=
