
     Program PWSCF v.6.7MaX starts on 22Jan2024 at 10:38: 5 

     This program is part of the open-source Quantum ESPRESSO suite
     for quantum simulation of materials; please cite
         "P. Giannozzi et al., J. Phys.:Condens. Matter 21 395502 (2009);
         "P. Giannozzi et al., J. Phys.:Condens. Matter 29 465901 (2017);
          URL http://www.quantum-espresso.org", 
     in publications or presentations arising from this work. More details at
     http://www.quantum-espresso.org/quote

     Parallel version (MPI), running on    32 processors

     MPI processes distributed on     1 nodes
     R & G space division:  proc/nbgrp/npool/nimage =      32
     Waiting for input...
     Reading input from standard input
Warning: card &CELL ignored
Warning: card  CELL_DYNAMICS = 'BFGS', ignored
Warning: card  PRESS = 0.0, ignored
Warning: card  PRESS_CONV_THR = 1D-3, ignored
Warning: card  CELL_DOFREE='2DXY' ignored
Warning: card / ignored

     Current dimensions of program PWSCF are:
     Max number of different atomic species (ntypx) = 10
     Max number of k-points (npk) =  40000
     Max angular momentum in pseudopotentials (lmaxx) =  3
     Message from routine read_pp_mesh:
     mesh size missing, using the one in header

     Subspace diagonalization in iterative solution of the eigenvalue problem:
     a serial algorithm will be used

 
     Parallelization info
     --------------------
     sticks:   dense  smooth     PW     G-vecs:    dense   smooth      PW
     Min          11      11      3                 1399     1399     233
     Max          12      12      4                 1434     1434     264
     Sum         367     367    121                45225    45225    7925
 


     bravais-lattice index     =            4
     lattice parameter (alat)  =       5.2000  a.u.
     unit-cell volume          =     948.4017 (a.u.)^3
     number of atoms/cell      =            2
     number of atomic types    =            1
     number of electrons       =         8.00
     number of Kohn-Sham states=            8
     kinetic-energy cutoff     =      50.0000  Ry
     charge density cutoff     =     200.0000  Ry
     scf convergence threshold =      1.0E-08
     mixing beta               =       0.7000
     number of iterations used =            8  plain     mixing
     Exchange-correlation= PBE
                           (   1   4   3   4   0   0   0)

     celldm(1)=   5.200000  celldm(2)=   0.000000  celldm(3)=   7.788462
     celldm(4)=   0.000000  celldm(5)=   0.000000  celldm(6)=   0.000000

     crystal axes: (cart. coord. in units of alat)
               a(1) = (   1.000000   0.000000   0.000000 )  
               a(2) = (  -0.500000   0.866025   0.000000 )  
               a(3) = (   0.000000   0.000000   7.788462 )  

     reciprocal axes: (cart. coord. in units 2 pi/alat)
               b(1) = (  1.000000  0.577350  0.000000 )  
               b(2) = (  0.000000  1.154701  0.000000 )  
               b(3) = (  0.000000  0.000000  0.128395 )  


     PseudoPot. # 1 for C  read from file:
     /home/yhkim/qe-6.7/pseudo/ONCV1/1.2/C_ONCV_PBE-1.2.upf
     MD5 check sum: 1a5f83a7b1f58d24996abe00ed223ac6
     Pseudo is Norm-conserving, Zval =  4.0
     Generated using ONCVPSP code by D. R. Hamann
     Using radial grid of  602 points,  4 beta functions with: 
                l(1) =   0
                l(2) =   0
                l(3) =   1
                l(4) =   1

     atomic species   valence    mass     pseudopotential
        C              4.00    12.01070     C ( 1.00)

     24 Sym. Ops., with inversion, found



   Cartesian axes

     site n.     atom                  positions (alat units)
         1           C   tau(   1) = (  -0.0000000   0.5773503   3.8942308  )
         2           C   tau(   2) = (   0.5000000   0.2886751   3.8942308  )

     number of k points=    27  Methfessel-Paxton smearing, width (Ry)=  0.0100
                       cart. coord. in units 2pi/alat
        k(    1) = (   0.0000000   0.0000000   0.0000000), wk =   0.0088889
        k(    2) = (   0.0000000   0.0769800   0.0000000), wk =   0.0533333
        k(    3) = (   0.0000000   0.1539601   0.0000000), wk =   0.0533333
        k(    4) = (   0.0000000   0.2309401   0.0000000), wk =   0.0533333
        k(    5) = (   0.0000000   0.3079201   0.0000000), wk =   0.0533333
        k(    6) = (   0.0000000   0.3849002   0.0000000), wk =   0.0533333
        k(    7) = (   0.0000000   0.4618802   0.0000000), wk =   0.0533333
        k(    8) = (   0.0000000   0.5388603   0.0000000), wk =   0.0533333
        k(    9) = (   0.0666667   0.1154701   0.0000000), wk =   0.0533333
        k(   10) = (   0.0666667   0.1924501   0.0000000), wk =   0.1066667
        k(   11) = (   0.0666667   0.2694301   0.0000000), wk =   0.1066667
        k(   12) = (   0.0666667   0.3464102   0.0000000), wk =   0.1066667
        k(   13) = (   0.0666667   0.4233902   0.0000000), wk =   0.1066667
        k(   14) = (   0.0666667   0.5003702   0.0000000), wk =   0.1066667
        k(   15) = (   0.0666667   0.5773503   0.0000000), wk =   0.0533333
        k(   16) = (   0.1333333   0.2309401   0.0000000), wk =   0.0533333
        k(   17) = (   0.1333333   0.3079201   0.0000000), wk =   0.1066667
        k(   18) = (   0.1333333   0.3849002   0.0000000), wk =   0.1066667
        k(   19) = (   0.1333333   0.4618802   0.0000000), wk =   0.1066667
        k(   20) = (   0.1333333   0.5388603   0.0000000), wk =   0.1066667
        k(   21) = (   0.2000000   0.3464102   0.0000000), wk =   0.0533333
        k(   22) = (   0.2000000   0.4233902   0.0000000), wk =   0.1066667
        k(   23) = (   0.2000000   0.5003702   0.0000000), wk =   0.1066667
        k(   24) = (   0.2000000   0.5773503   0.0000000), wk =   0.0533333
        k(   25) = (   0.2666667   0.4618802   0.0000000), wk =   0.0533333
        k(   26) = (   0.2666667   0.5388603   0.0000000), wk =   0.1066667
        k(   27) = (   0.3333333   0.5773503   0.0000000), wk =   0.0177778

     Dense  grid:    45225 G-vectors     FFT dimensions: (  24,  24, 192)

     Estimated max dynamical RAM per process >       1.90 MB

     Estimated total dynamical RAM >      60.87 MB
 ----2D----2D----2D----2D----2D----2D----2D----2D----2D----2D----2D----2D
  The code is running with the 2D cutoff
  Please refer to:
  Sohier, T., Calandra, M., & Mauri, F. (2017), 
  Density functional perturbation theory for gated two-dimensional heterostructu
 res:
  Theoretical developments and application to flexural phonons in graphene.
  Physical Review B, 96(7), 75448. https://doi.org/10.1103/PhysRevB.96.075448
 ----2D----2D----2D----2D----2D----2D----2D----2D----2D----2D----2D----2D

     Initial potential from superposition of free atoms

     starting charge    7.98607, renormalised to    8.00000

     negative rho (up, down):  1.305E-04 0.000E+00
     Starting wfcs are random

     total cpu time spent up to now is        0.1 secs

     Self-consistent Calculation

     iteration #  1     ecut=    50.00 Ry     beta= 0.70
     Davidson diagonalization with overlap
     ethr =  1.00E-02,  avg # of iterations = 12.0

     Threshold (ethr) on eigenvalues was too large:
     Diagonalizing with lowered threshold

     Davidson diagonalization with overlap
     ethr =  7.02E-04,  avg # of iterations =  3.4

     negative rho (up, down):  1.917E-05 0.000E+00

     total cpu time spent up to now is        0.7 secs

     total energy              =     -22.67983643 Ry
     estimated scf accuracy    <       0.06341951 Ry

     iteration #  2     ecut=    50.00 Ry     beta= 0.70
     Davidson diagonalization with overlap
     ethr =  7.93E-04,  avg # of iterations =  2.0

     negative rho (up, down):  1.613E-06 0.000E+00

     total cpu time spent up to now is        0.8 secs

     total energy              =     -22.68697905 Ry
     estimated scf accuracy    <       0.00169211 Ry

     iteration #  3     ecut=    50.00 Ry     beta= 0.70
     Davidson diagonalization with overlap
     c_bands:  1 eigenvalues not converged
     c_bands:  1 eigenvalues not converged
     c_bands:  1 eigenvalues not converged
     ethr =  2.12E-05,  avg # of iterations =  9.4

     total cpu time spent up to now is        1.1 secs

     total energy              =     -22.68933262 Ry
     estimated scf accuracy    <       0.00011723 Ry

     iteration #  4     ecut=    50.00 Ry     beta= 0.70
     Davidson diagonalization with overlap
     c_bands:  1 eigenvalues not converged
     ethr =  1.47E-06,  avg # of iterations =  6.7

     total cpu time spent up to now is        1.3 secs

     total energy              =     -22.68935876 Ry
     estimated scf accuracy    <       0.00000052 Ry

     iteration #  5     ecut=    50.00 Ry     beta= 0.70
     Davidson diagonalization with overlap
     ethr =  6.51E-09,  avg # of iterations =  4.2

     total cpu time spent up to now is        1.4 secs

     total energy              =     -22.68936096 Ry
     estimated scf accuracy    <       0.00000002 Ry

     iteration #  6     ecut=    50.00 Ry     beta= 0.70
     Davidson diagonalization with overlap
     ethr =  2.90E-10,  avg # of iterations =  2.1

     total cpu time spent up to now is        1.6 secs

     End of self-consistent calculation

          k = 0.0000 0.0000 0.0000 (  5629 PWs)   bands (ev):

   -22.1190 -10.7000  -8.0925  -8.0925  -0.9078  -0.1948   0.6144   0.9633

          k = 0.0000 0.0770 0.0000 (  5633 PWs)   bands (ev):

   -22.0335 -10.6054  -8.4918  -8.2484  -0.7929  -0.0795   0.7311   0.9813

          k = 0.0000 0.1540 0.0000 (  5612 PWs)   bands (ev):

   -21.7780 -10.3221  -9.5167  -8.6464  -0.4484   0.2654   0.7902   1.0820

          k = 0.0000 0.2309 0.0000 (  5626 PWs)   bands (ev):

   -21.3553 -10.8670  -9.8562  -9.1584   0.1251   0.4351   0.8282   1.0964

          k = 0.0000 0.3079 0.0000 (  5660 PWs)   bands (ev):

   -20.7712 -12.3337  -9.6647  -9.2233  -0.0961   0.0653   0.9260   1.6463

          k = 0.0000 0.3849 0.0000 (  5680 PWs)   bands (ev):

   -20.0373 -13.7930 -10.0905  -8.4519  -1.3595  -0.2521   1.9513   2.6697

          k = 0.0000 0.4619 0.0000 (  5696 PWs)   bands (ev):

   -19.1856 -15.1536 -10.3925  -7.6170  -2.5668  -0.4796   3.1941   3.9057

          k = 0.0000 0.5389 0.0000 (  5690 PWs)   bands (ev):

   -18.3660 -16.2336 -10.5488  -6.9443  -3.4397  -0.5966   4.6329   5.3185

          k = 0.0667 0.1155 0.0000 (  5621 PWs)   bands (ev):

   -21.8631 -10.4163  -9.1676  -8.5615  -0.5632   0.1505   0.9650   1.1869

          k = 0.0667 0.1925 0.0000 (  5624 PWs)   bands (ev):

   -21.5239 -10.2884 -10.0407  -9.0863  -0.1040   0.6096   1.0017   1.4328

          k = 0.0667 0.2694 0.0000 (  5639 PWs)   bands (ev):

   -21.0203 -11.6446  -9.6484  -9.4908   0.4055   0.5829   0.6362   1.3007

          k = 0.0667 0.3464 0.0000 (  5675 PWs)   bands (ev):

   -20.3602 -13.0767 -10.1499  -8.7846  -0.8004   0.2901   1.4961   2.2112

          k = 0.0667 0.4234 0.0000 (  5686 PWs)   bands (ev):

   -19.5620 -14.4735 -10.5346  -7.9682  -2.0338   0.0167   2.6303   3.3380

          k = 0.0667 0.5004 0.0000 (  5686 PWs)   bands (ev):

   -18.6885 -15.7225 -10.7742  -7.1649  -3.1128  -0.1562   3.9723   4.6567

          k = 0.0667 0.5774 0.0000 (  5664 PWs)   bands (ev):

   -18.1316 -16.4066 -10.8546  -6.7590  -3.6145  -0.2139   5.3798   5.5819

          k = 0.1333 0.2309 0.0000 (  5638 PWs)   bands (ev):

   -21.1036 -11.3000  -9.7802  -9.5809   0.4685   0.5948   1.1810   1.6898

          k = 0.1333 0.3079 0.0000 (  5661 PWs)   bands (ev):

   -20.5231 -12.5003 -10.4653  -8.9541  -0.4669   1.2680   1.4830   1.9760

          k = 0.1333 0.3849 0.0000 (  5675 PWs)   bands (ev):

   -19.7943 -13.7966 -11.0056  -8.1895  -1.6232   1.1831   2.2901   2.9847

          k = 0.1333 0.4619 0.0000 (  5669 PWs)   bands (ev):

   -18.9483 -15.0683 -11.3699  -7.3533  -2.7536   0.9632   3.5240   4.1803

          k = 0.1333 0.5389 0.0000 (  5668 PWs)   bands (ev):

   -18.1285 -16.1139 -11.5531  -6.6604  -3.6055   0.8489   4.9256   5.4303

          k = 0.2000 0.3464 0.0000 (  5668 PWs)   bands (ev):

   -19.8725 -13.4485 -11.3101  -8.2642  -1.4648   2.1758   2.4692   2.8642

          k = 0.2000 0.4234 0.0000 (  5686 PWs)   bands (ev):

   -19.0873 -14.5095 -11.9523  -7.4586  -2.5158   2.4430   3.2972   3.9283

          k = 0.2000 0.5004 0.0000 (  5683 PWs)   bands (ev):

   -18.2235 -15.5842 -12.3256  -6.6367  -3.4977   2.3001   4.5870   5.0054

          k = 0.2000 0.5774 0.0000 (  5670 PWs)   bands (ev):

   -17.6510 -16.2356 -12.4464  -6.1810  -4.0068   2.2482   5.4937   5.5694

          k = 0.2667 0.4619 0.0000 (  5696 PWs)   bands (ev):

   -18.2683 -15.2821 -12.7118  -6.6358  -3.4366   3.5120   4.3312   4.7112

          k = 0.2667 0.5389 0.0000 (  5663 PWs)   bands (ev):

   -17.4407 -16.0873 -13.1086  -5.8555  -4.2615   3.7012   5.1307   5.2010

          k = 0.3333 0.5774 0.0000 (  5670 PWs)   bands (ev):

   -16.6958 -16.6958 -13.4219  -5.0525  -5.0525   4.7227   4.7227   5.1178

     the Fermi energy is    -5.0525 ev

!    total energy              =     -22.68936097 Ry
     estimated scf accuracy    <          1.4E-09 Ry
     smearing contrib. (-TS)   =      -0.00005015 Ry
     internal energy E=F+TS    =     -22.68931082 Ry

     The total energy is F=E-TS. E is the sum of the following terms:
     one-electron contribution =    -310.01132348 Ry
     hartree contribution      =     155.45105447 Ry
     xc contribution           =      -6.57686219 Ry
     ewald contribution        =     138.44782037 Ry

     convergence has been achieved in   6 iterations

     Forces acting on atoms (cartesian axes, Ry/au):

     atom    1 type  1   force =     0.00000000    0.00000000    0.00000000
     atom    2 type  1   force =     0.00000000    0.00000000    0.00000000

     Total force =     0.000000     Total SCF correction =     0.000000


     Computing stress (Cartesian axis) and pressure

          total   stress  (Ry/bohr**3)                   (kbar)     P=      -97.36
  -0.00095386   0.00000000  -0.00000000         -140.32        0.00       -0.00
   0.00000000  -0.00095386   0.00000000            0.00     -140.32        0.00
  -0.00000000   0.00000000  -0.00007788           -0.00        0.00      -11.46


     Writing output data file ./work/LiC520.save/
 
     init_run     :      0.07s CPU      0.09s WALL (       1 calls)
     electrons    :      1.36s CPU      1.47s WALL (       1 calls)
     forces       :      0.01s CPU      0.01s WALL (       1 calls)
     stress       :      0.02s CPU      0.02s WALL (       1 calls)

     Called by init_run:
     wfcinit      :      0.06s CPU      0.07s WALL (       1 calls)
     potinit      :      0.00s CPU      0.01s WALL (       1 calls)
     hinit0       :      0.00s CPU      0.01s WALL (       1 calls)

     Called by electrons:
     c_bands      :      1.21s CPU      1.29s WALL (       7 calls)
     sum_band     :      0.13s CPU      0.14s WALL (       7 calls)
     v_of_rho     :      0.01s CPU      0.02s WALL (       7 calls)
     mix_rho      :      0.00s CPU      0.00s WALL (       7 calls)

     Called by c_bands:
     init_us_2    :      0.01s CPU      0.01s WALL (     459 calls)
     cegterg      :      1.18s CPU      1.26s WALL (     189 calls)

     Called by *egterg:
     cdiaghg      :      0.11s CPU      0.12s WALL (    1237 calls)
     h_psi        :      1.02s CPU      1.09s WALL (    1291 calls)
     g_psi        :      0.00s CPU      0.00s WALL (    1075 calls)

     Called by h_psi:
     h_psi:calbec :      0.04s CPU      0.04s WALL (    1291 calls)
     vloc_psi     :      0.95s CPU      1.02s WALL (    1291 calls)
     add_vuspsi   :      0.01s CPU      0.01s WALL (    1291 calls)

     General routines
     calbec       :      0.04s CPU      0.05s WALL (    1426 calls)
     fft          :      0.01s CPU      0.02s WALL (      78 calls)
     ffts         :      0.00s CPU      0.00s WALL (       7 calls)
     fftw         :      1.01s CPU      1.09s WALL (   14130 calls)
 
     Parallel routines
     fft_scatt_xy :      0.06s CPU      0.07s WALL (   14215 calls)
     fft_scatt_yz :      0.60s CPU      0.64s WALL (   14215 calls)
 
     PWSCF        :      1.51s CPU      1.91s WALL

 
   This run was terminated on:  10:38: 7  22Jan2024            

=------------------------------------------------------------------------------=
   JOB DONE.
=------------------------------------------------------------------------------=
