
     Program PWSCF v.6.7MaX starts on 22Jan2024 at 10:38: 0 

     This program is part of the open-source Quantum ESPRESSO suite
     for quantum simulation of materials; please cite
         "P. Giannozzi et al., J. Phys.:Condens. Matter 21 395502 (2009);
         "P. Giannozzi et al., J. Phys.:Condens. Matter 29 465901 (2017);
          URL http://www.quantum-espresso.org", 
     in publications or presentations arising from this work. More details at
     http://www.quantum-espresso.org/quote

     Parallel version (MPI), running on    32 processors

     MPI processes distributed on     1 nodes
     R & G space division:  proc/nbgrp/npool/nimage =      32
     Waiting for input...
     Reading input from standard input
Warning: card &CELL ignored
Warning: card  CELL_DYNAMICS = 'BFGS', ignored
Warning: card  PRESS = 0.0, ignored
Warning: card  PRESS_CONV_THR = 1D-3, ignored
Warning: card  CELL_DOFREE='2DXY' ignored
Warning: card / ignored

     Current dimensions of program PWSCF are:
     Max number of different atomic species (ntypx) = 10
     Max number of k-points (npk) =  40000
     Max angular momentum in pseudopotentials (lmaxx) =  3
     Message from routine read_pp_mesh:
     mesh size missing, using the one in header

     Subspace diagonalization in iterative solution of the eigenvalue problem:
     a serial algorithm will be used

 
     Parallelization info
     --------------------
     sticks:   dense  smooth     PW     G-vecs:    dense   smooth      PW
     Min          10      10      3                 1294     1294     223
     Max          11      11      4                 1323     1323     248
     Sum         349     349    109                41955    41955    7373
 


     bravais-lattice index     =            4
     lattice parameter (alat)  =       5.0000  a.u.
     unit-cell volume          =     876.8507 (a.u.)^3
     number of atoms/cell      =            2
     number of atomic types    =            1
     number of electrons       =         8.00
     number of Kohn-Sham states=            8
     kinetic-energy cutoff     =      50.0000  Ry
     charge density cutoff     =     200.0000  Ry
     scf convergence threshold =      1.0E-08
     mixing beta               =       0.7000
     number of iterations used =            8  plain     mixing
     Exchange-correlation= PBE
                           (   1   4   3   4   0   0   0)

     celldm(1)=   5.000000  celldm(2)=   0.000000  celldm(3)=   8.100000
     celldm(4)=   0.000000  celldm(5)=   0.000000  celldm(6)=   0.000000

     crystal axes: (cart. coord. in units of alat)
               a(1) = (   1.000000   0.000000   0.000000 )  
               a(2) = (  -0.500000   0.866025   0.000000 )  
               a(3) = (   0.000000   0.000000   8.100000 )  

     reciprocal axes: (cart. coord. in units 2 pi/alat)
               b(1) = (  1.000000  0.577350  0.000000 )  
               b(2) = (  0.000000  1.154701  0.000000 )  
               b(3) = (  0.000000  0.000000  0.123457 )  


     PseudoPot. # 1 for C  read from file:
     /home/yhkim/qe-6.7/pseudo/ONCV1/1.2/C_ONCV_PBE-1.2.upf
     MD5 check sum: 1a5f83a7b1f58d24996abe00ed223ac6
     Pseudo is Norm-conserving, Zval =  4.0
     Generated using ONCVPSP code by D. R. Hamann
     Using radial grid of  602 points,  4 beta functions with: 
                l(1) =   0
                l(2) =   0
                l(3) =   1
                l(4) =   1

     atomic species   valence    mass     pseudopotential
        C              4.00    12.01070     C ( 1.00)

     24 Sym. Ops., with inversion, found



   Cartesian axes

     site n.     atom                  positions (alat units)
         1           C   tau(   1) = (  -0.0000000   0.5773503   4.0500000  )
         2           C   tau(   2) = (   0.5000000   0.2886751   4.0500000  )

     number of k points=    27  Methfessel-Paxton smearing, width (Ry)=  0.0100
                       cart. coord. in units 2pi/alat
        k(    1) = (   0.0000000   0.0000000   0.0000000), wk =   0.0088889
        k(    2) = (   0.0000000   0.0769800   0.0000000), wk =   0.0533333
        k(    3) = (   0.0000000   0.1539601   0.0000000), wk =   0.0533333
        k(    4) = (   0.0000000   0.2309401   0.0000000), wk =   0.0533333
        k(    5) = (   0.0000000   0.3079201   0.0000000), wk =   0.0533333
        k(    6) = (   0.0000000   0.3849002   0.0000000), wk =   0.0533333
        k(    7) = (   0.0000000   0.4618802   0.0000000), wk =   0.0533333
        k(    8) = (   0.0000000   0.5388603   0.0000000), wk =   0.0533333
        k(    9) = (   0.0666667   0.1154701   0.0000000), wk =   0.0533333
        k(   10) = (   0.0666667   0.1924501   0.0000000), wk =   0.1066667
        k(   11) = (   0.0666667   0.2694301   0.0000000), wk =   0.1066667
        k(   12) = (   0.0666667   0.3464102   0.0000000), wk =   0.1066667
        k(   13) = (   0.0666667   0.4233902   0.0000000), wk =   0.1066667
        k(   14) = (   0.0666667   0.5003702   0.0000000), wk =   0.1066667
        k(   15) = (   0.0666667   0.5773503   0.0000000), wk =   0.0533333
        k(   16) = (   0.1333333   0.2309401   0.0000000), wk =   0.0533333
        k(   17) = (   0.1333333   0.3079201   0.0000000), wk =   0.1066667
        k(   18) = (   0.1333333   0.3849002   0.0000000), wk =   0.1066667
        k(   19) = (   0.1333333   0.4618802   0.0000000), wk =   0.1066667
        k(   20) = (   0.1333333   0.5388603   0.0000000), wk =   0.1066667
        k(   21) = (   0.2000000   0.3464102   0.0000000), wk =   0.0533333
        k(   22) = (   0.2000000   0.4233902   0.0000000), wk =   0.1066667
        k(   23) = (   0.2000000   0.5003702   0.0000000), wk =   0.1066667
        k(   24) = (   0.2000000   0.5773503   0.0000000), wk =   0.0533333
        k(   25) = (   0.2666667   0.4618802   0.0000000), wk =   0.0533333
        k(   26) = (   0.2666667   0.5388603   0.0000000), wk =   0.1066667
        k(   27) = (   0.3333333   0.5773503   0.0000000), wk =   0.0177778

     Dense  grid:    41955 G-vectors     FFT dimensions: (  24,  24, 192)

     Estimated max dynamical RAM per process >       1.80 MB

     Estimated total dynamical RAM >      57.64 MB
 ----2D----2D----2D----2D----2D----2D----2D----2D----2D----2D----2D----2D
  The code is running with the 2D cutoff
  Please refer to:
  Sohier, T., Calandra, M., & Mauri, F. (2017), 
  Density functional perturbation theory for gated two-dimensional heterostructu
 res:
  Theoretical developments and application to flexural phonons in graphene.
  Physical Review B, 96(7), 75448. https://doi.org/10.1103/PhysRevB.96.075448
 ----2D----2D----2D----2D----2D----2D----2D----2D----2D----2D----2D----2D

     Initial potential from superposition of free atoms

     starting charge    7.98607, renormalised to    8.00000

     negative rho (up, down):  1.283E-04 0.000E+00
     Starting wfcs are random

     total cpu time spent up to now is        0.1 secs

     Self-consistent Calculation

     iteration #  1     ecut=    50.00 Ry     beta= 0.70
     Davidson diagonalization with overlap
     ethr =  1.00E-02,  avg # of iterations = 12.0

     negative rho (up, down):  2.283E-07 0.000E+00

     total cpu time spent up to now is        0.5 secs

     total energy              =     -22.72999694 Ry
     estimated scf accuracy    <       0.08654423 Ry

     iteration #  2     ecut=    50.00 Ry     beta= 0.70
     Davidson diagonalization with overlap
     ethr =  1.08E-03,  avg # of iterations =  2.3

     total cpu time spent up to now is        0.7 secs

     total energy              =     -22.74530170 Ry
     estimated scf accuracy    <       0.00190877 Ry

     iteration #  3     ecut=    50.00 Ry     beta= 0.70
     Davidson diagonalization with overlap
     ethr =  2.39E-05,  avg # of iterations =  8.9

     total cpu time spent up to now is        0.9 secs

     total energy              =     -22.74635584 Ry
     estimated scf accuracy    <       0.00009650 Ry

     iteration #  4     ecut=    50.00 Ry     beta= 0.70
     Davidson diagonalization with overlap
     ethr =  1.21E-06,  avg # of iterations =  6.3

     total cpu time spent up to now is        1.1 secs

     total energy              =     -22.74639014 Ry
     estimated scf accuracy    <       0.00000145 Ry

     iteration #  5     ecut=    50.00 Ry     beta= 0.70
     Davidson diagonalization with overlap
     ethr =  1.82E-08,  avg # of iterations =  3.8

     total cpu time spent up to now is        1.3 secs

     total energy              =     -22.74639238 Ry
     estimated scf accuracy    <       0.00000004 Ry

     iteration #  6     ecut=    50.00 Ry     beta= 0.70
     Davidson diagonalization with overlap
     ethr =  5.05E-10,  avg # of iterations =  2.7

     total cpu time spent up to now is        1.4 secs

     End of self-consistent calculation

          k = 0.0000 0.0000 0.0000 (  5287 PWs)   bands (ev):

   -22.7096 -11.0965  -7.8804  -7.8804  -0.9347  -0.1971   0.6049   0.9566

          k = 0.0000 0.0770 0.0000 (  5279 PWs)   bands (ev):

   -22.6174 -10.9912  -8.2819  -8.0574  -0.8105  -0.0722   0.7313   1.0819

          k = 0.0000 0.1540 0.0000 (  5274 PWs)   bands (ev):

   -22.3417 -10.6770  -9.3318  -8.5110  -0.4382   0.3023   1.1107   1.4575

          k = 0.0000 0.2309 0.0000 (  5282 PWs)   bands (ev):

   -21.8849 -10.7420 -10.1616  -9.0855   0.1815   0.9224   1.6956   1.7535

          k = 0.0000 0.3079 0.0000 (  5234 PWs)   bands (ev):

   -21.2521 -12.2928  -9.6479  -9.4574   0.7707   1.0439   1.3316   1.8095

          k = 0.0000 0.3849 0.0000 (  5236 PWs)   bands (ev):

   -20.4535 -13.8539 -10.1221  -8.5987  -0.6824   0.9980   2.1591   2.9177

          k = 0.0000 0.4619 0.0000 (  5246 PWs)   bands (ev):

   -19.5163 -15.3290 -10.4569  -7.6622  -2.0677   0.7610   3.5046   4.2649

          k = 0.0000 0.5389 0.0000 (  5220 PWs)   bands (ev):

   -18.5739 -16.5478 -10.6284  -6.8956  -3.0712   0.6386   5.0696   5.8183

          k = 0.0667 0.1155 0.0000 (  5273 PWs)   bands (ev):

   -22.4334 -10.7812  -8.9675  -8.4138  -0.5622   0.1776   0.9843   1.3326

          k = 0.0667 0.1925 0.0000 (  5273 PWs)   bands (ev):

   -22.0672 -10.3660 -10.1237  -9.0036  -0.0661   0.6758   1.4899   1.8327

          k = 0.0667 0.2694 0.0000 (  5263 PWs)   bands (ev):

   -21.5223 -11.5499  -9.7555  -9.6306   0.6765   1.3173   1.4722   1.9298

          k = 0.0667 0.3464 0.0000 (  5240 PWs)   bands (ev):

   -20.8057 -13.0748 -10.1836  -8.9704  -0.0311   1.5630   1.6781   2.4187

          k = 0.0667 0.4234 0.0000 (  5218 PWs)   bands (ev):

   -19.9338 -14.5791 -10.6057  -8.0574  -1.4476   1.2896   2.8941   3.6458

          k = 0.0667 0.5004 0.0000 (  5224 PWs)   bands (ev):

   -18.9596 -15.9521 -10.8694  -7.1514  -2.6857   1.1077   4.3501   5.0896

          k = 0.0667 0.5774 0.0000 (  5224 PWs)   bands (ev):

   -18.2911 -16.7564 -10.9586  -6.6863  -3.2662   1.0461   5.9150   6.0940

          k = 0.1333 0.2309 0.0000 (  5271 PWs)   bands (ev):

   -21.6127 -11.1624  -9.8553  -9.7837   0.5531   1.2964   1.5882   2.1218

          k = 0.1333 0.3079 0.0000 (  5245 PWs)   bands (ev):

   -20.9835 -12.4227 -10.5432  -9.1590   0.3671   1.4174   2.1611   2.8698

          k = 0.1333 0.3849 0.0000 (  5225 PWs)   bands (ev):

   -20.1905 -13.8136 -11.1310  -8.3063  -0.9584   2.4957   2.5792   3.2602

          k = 0.1333 0.4619 0.0000 (  5213 PWs)   bands (ev):

   -19.2607 -15.1985 -11.5238  -7.3677  -2.2518   2.3116   3.8644   4.5690

          k = 0.1333 0.5389 0.0000 (  5212 PWs)   bands (ev):

   -18.3235 -16.3783 -11.7193  -6.5822  -3.2281   2.1876   5.4033   5.9611

          k = 0.2000 0.3464 0.0000 (  5218 PWs)   bands (ev):

   -20.2769 -13.3957 -11.4932  -8.3904  -0.7652   2.4001   3.1280   4.0140

          k = 0.2000 0.4234 0.0000 (  5210 PWs)   bands (ev):

   -19.4195 -14.5262 -12.2004  -7.4895  -1.9570   3.6100   3.9679   4.2920

          k = 0.2000 0.5004 0.0000 (  5228 PWs)   bands (ev):

   -18.4616 -15.7117 -12.5993  -6.5640  -3.0720   3.7679   5.0447   5.4810

          k = 0.2000 0.5774 0.0000 (  5208 PWs)   bands (ev):

   -17.7883 -16.4716 -12.7254  -6.0472  -3.6543   3.7052   6.0140   6.3852

          k = 0.2667 0.4619 0.0000 (  5224 PWs)   bands (ev):

   -18.5207 -15.3109 -13.0741  -6.5677  -2.9866   4.9015   5.2259   5.2966

          k = 0.2667 0.5389 0.0000 (  5211 PWs)   bands (ev):

   -17.5956 -16.1851 -13.5252  -5.6892  -3.9155   5.2912   5.6501   6.2186

          k = 0.3333 0.5774 0.0000 (  5232 PWs)   bands (ev):

   -16.7893 -16.7893 -13.9154  -4.7939  -4.7939   5.5314   6.2594   6.2594

     the Fermi energy is    -4.7939 ev

!    total energy              =     -22.74639239 Ry
     estimated scf accuracy    <          1.9E-10 Ry
     smearing contrib. (-TS)   =      -0.00005015 Ry
     internal energy E=F+TS    =     -22.74634224 Ry

     The total energy is F=E-TS. E is the sum of the following terms:
     one-electron contribution =    -335.47860646 Ry
     hartree contribution      =     168.23663795 Ry
     xc contribution           =      -6.72298070 Ry
     ewald contribution        =     151.21860696 Ry

     convergence has been achieved in   6 iterations

     Forces acting on atoms (cartesian axes, Ry/au):

     atom    1 type  1   force =    -0.00000000   -0.00000000    0.00000000
     atom    2 type  1   force =     0.00000000    0.00000000    0.00000000

     Total force =     0.000000     Total SCF correction =     0.000000


     Computing stress (Cartesian axis) and pressure

          total   stress  (Ry/bohr**3)                   (kbar)     P=      -78.71
  -0.00075890   0.00000000   0.00000000         -111.64        0.00        0.00
   0.00000000  -0.00075890  -0.00000000            0.00     -111.64       -0.00
   0.00000000   0.00000000  -0.00008745            0.00        0.00      -12.86


     Writing output data file ./work/LiC500.save/
 
     init_run     :      0.07s CPU      0.09s WALL (       1 calls)
     electrons    :      1.24s CPU      1.35s WALL (       1 calls)
     forces       :      0.01s CPU      0.01s WALL (       1 calls)
     stress       :      0.02s CPU      0.02s WALL (       1 calls)

     Called by init_run:
     wfcinit      :      0.06s CPU      0.07s WALL (       1 calls)
     potinit      :      0.00s CPU      0.01s WALL (       1 calls)
     hinit0       :      0.00s CPU      0.00s WALL (       1 calls)

     Called by electrons:
     c_bands      :      1.11s CPU      1.20s WALL (       6 calls)
     sum_band     :      0.11s CPU      0.12s WALL (       6 calls)
     v_of_rho     :      0.01s CPU      0.02s WALL (       7 calls)
     mix_rho      :      0.00s CPU      0.00s WALL (       6 calls)

     Called by c_bands:
     init_us_2    :      0.01s CPU      0.01s WALL (     405 calls)
     cegterg      :      1.09s CPU      1.17s WALL (     162 calls)

     Called by *egterg:
     cdiaghg      :      0.11s CPU      0.11s WALL (    1134 calls)
     h_psi        :      0.94s CPU      1.02s WALL (    1161 calls)
     g_psi        :      0.00s CPU      0.00s WALL (     972 calls)

     Called by h_psi:
     h_psi:calbec :      0.04s CPU      0.04s WALL (    1161 calls)
     vloc_psi     :      0.89s CPU      0.95s WALL (    1161 calls)
     add_vuspsi   :      0.01s CPU      0.01s WALL (    1161 calls)

     General routines
     calbec       :      0.04s CPU      0.05s WALL (    1296 calls)
     fft          :      0.01s CPU      0.01s WALL (      77 calls)
     ffts         :      0.00s CPU      0.00s WALL (       6 calls)
     fftw         :      0.93s CPU      1.01s WALL (   13238 calls)
 
     Parallel routines
     fft_scatt_xy :      0.06s CPU      0.07s WALL (   13321 calls)
     fft_scatt_yz :      0.54s CPU      0.59s WALL (   13321 calls)
 
     PWSCF        :      1.39s CPU      1.78s WALL

 
   This run was terminated on:  10:38: 1  22Jan2024            

=------------------------------------------------------------------------------=
   JOB DONE.
=------------------------------------------------------------------------------=
