
     Program PWSCF v.6.7MaX starts on 22Jan2024 at 10:38:10 

     This program is part of the open-source Quantum ESPRESSO suite
     for quantum simulation of materials; please cite
         "P. Giannozzi et al., J. Phys.:Condens. Matter 21 395502 (2009);
         "P. Giannozzi et al., J. Phys.:Condens. Matter 29 465901 (2017);
          URL http://www.quantum-espresso.org", 
     in publications or presentations arising from this work. More details at
     http://www.quantum-espresso.org/quote

     Parallel version (MPI), running on    32 processors

     MPI processes distributed on     1 nodes
     R & G space division:  proc/nbgrp/npool/nimage =      32
     Waiting for input...
     Reading input from standard input
Warning: card &CELL ignored
Warning: card  CELL_DYNAMICS = 'BFGS', ignored
Warning: card  PRESS = 0.0, ignored
Warning: card  PRESS_CONV_THR = 1D-3, ignored
Warning: card  CELL_DOFREE='2DXY' ignored
Warning: card / ignored

     Current dimensions of program PWSCF are:
     Max number of different atomic species (ntypx) = 10
     Max number of k-points (npk) =  40000
     Max angular momentum in pseudopotentials (lmaxx) =  3
     Message from routine read_pp_mesh:
     mesh size missing, using the one in header

     Subspace diagonalization in iterative solution of the eigenvalue problem:
     a serial algorithm will be used

 
     Parallelization info
     --------------------
     sticks:   dense  smooth     PW     G-vecs:    dense   smooth      PW
     Min          12      12      3                 1514     1514     237
     Max          13      13      4                 1537     1537     276
     Sum         397     397    121                48711    48711    8381
 


     bravais-lattice index     =            4
     lattice parameter (alat)  =       5.4000  a.u.
     unit-cell volume          =    1022.7587 (a.u.)^3
     number of atoms/cell      =            2
     number of atomic types    =            1
     number of electrons       =         8.00
     number of Kohn-Sham states=            8
     kinetic-energy cutoff     =      50.0000  Ry
     charge density cutoff     =     200.0000  Ry
     scf convergence threshold =      1.0E-08
     mixing beta               =       0.7000
     number of iterations used =            8  plain     mixing
     Exchange-correlation= PBE
                           (   1   4   3   4   0   0   0)

     celldm(1)=   5.400000  celldm(2)=   0.000000  celldm(3)=   7.500000
     celldm(4)=   0.000000  celldm(5)=   0.000000  celldm(6)=   0.000000

     crystal axes: (cart. coord. in units of alat)
               a(1) = (   1.000000   0.000000   0.000000 )  
               a(2) = (  -0.500000   0.866025   0.000000 )  
               a(3) = (   0.000000   0.000000   7.500000 )  

     reciprocal axes: (cart. coord. in units 2 pi/alat)
               b(1) = (  1.000000  0.577350  0.000000 )  
               b(2) = (  0.000000  1.154701  0.000000 )  
               b(3) = (  0.000000  0.000000  0.133333 )  


     PseudoPot. # 1 for C  read from file:
     /home/yhkim/qe-6.7/pseudo/ONCV1/1.2/C_ONCV_PBE-1.2.upf
     MD5 check sum: 1a5f83a7b1f58d24996abe00ed223ac6
     Pseudo is Norm-conserving, Zval =  4.0
     Generated using ONCVPSP code by D. R. Hamann
     Using radial grid of  602 points,  4 beta functions with: 
                l(1) =   0
                l(2) =   0
                l(3) =   1
                l(4) =   1

     atomic species   valence    mass     pseudopotential
        C              4.00    12.01070     C ( 1.00)

     24 Sym. Ops., with inversion, found



   Cartesian axes

     site n.     atom                  positions (alat units)
         1           C   tau(   1) = (  -0.0000000   0.5773503   3.7500000  )
         2           C   tau(   2) = (   0.5000000   0.2886751   3.7500000  )

     number of k points=    27  Methfessel-Paxton smearing, width (Ry)=  0.0100
                       cart. coord. in units 2pi/alat
        k(    1) = (   0.0000000   0.0000000   0.0000000), wk =   0.0088889
        k(    2) = (   0.0000000   0.0769800   0.0000000), wk =   0.0533333
        k(    3) = (   0.0000000   0.1539601   0.0000000), wk =   0.0533333
        k(    4) = (   0.0000000   0.2309401   0.0000000), wk =   0.0533333
        k(    5) = (   0.0000000   0.3079201   0.0000000), wk =   0.0533333
        k(    6) = (   0.0000000   0.3849002   0.0000000), wk =   0.0533333
        k(    7) = (   0.0000000   0.4618802   0.0000000), wk =   0.0533333
        k(    8) = (   0.0000000   0.5388603   0.0000000), wk =   0.0533333
        k(    9) = (   0.0666667   0.1154701   0.0000000), wk =   0.0533333
        k(   10) = (   0.0666667   0.1924501   0.0000000), wk =   0.1066667
        k(   11) = (   0.0666667   0.2694301   0.0000000), wk =   0.1066667
        k(   12) = (   0.0666667   0.3464102   0.0000000), wk =   0.1066667
        k(   13) = (   0.0666667   0.4233902   0.0000000), wk =   0.1066667
        k(   14) = (   0.0666667   0.5003702   0.0000000), wk =   0.1066667
        k(   15) = (   0.0666667   0.5773503   0.0000000), wk =   0.0533333
        k(   16) = (   0.1333333   0.2309401   0.0000000), wk =   0.0533333
        k(   17) = (   0.1333333   0.3079201   0.0000000), wk =   0.1066667
        k(   18) = (   0.1333333   0.3849002   0.0000000), wk =   0.1066667
        k(   19) = (   0.1333333   0.4618802   0.0000000), wk =   0.1066667
        k(   20) = (   0.1333333   0.5388603   0.0000000), wk =   0.1066667
        k(   21) = (   0.2000000   0.3464102   0.0000000), wk =   0.0533333
        k(   22) = (   0.2000000   0.4233902   0.0000000), wk =   0.1066667
        k(   23) = (   0.2000000   0.5003702   0.0000000), wk =   0.1066667
        k(   24) = (   0.2000000   0.5773503   0.0000000), wk =   0.0533333
        k(   25) = (   0.2666667   0.4618802   0.0000000), wk =   0.0533333
        k(   26) = (   0.2666667   0.5388603   0.0000000), wk =   0.1066667
        k(   27) = (   0.3333333   0.5773503   0.0000000), wk =   0.0177778

     Dense  grid:    48711 G-vectors     FFT dimensions: (  25,  25, 192)

     Estimated max dynamical RAM per process >       2.02 MB

     Estimated total dynamical RAM >      64.75 MB
 ----2D----2D----2D----2D----2D----2D----2D----2D----2D----2D----2D----2D
  The code is running with the 2D cutoff
  Please refer to:
  Sohier, T., Calandra, M., & Mauri, F. (2017), 
  Density functional perturbation theory for gated two-dimensional heterostructu
 res:
  Theoretical developments and application to flexural phonons in graphene.
  Physical Review B, 96(7), 75448. https://doi.org/10.1103/PhysRevB.96.075448
 ----2D----2D----2D----2D----2D----2D----2D----2D----2D----2D----2D----2D

     Initial potential from superposition of free atoms

     starting charge    7.98607, renormalised to    8.00000

     negative rho (up, down):  1.330E-04 0.000E+00
     Starting wfcs are random

     total cpu time spent up to now is        0.1 secs

     Self-consistent Calculation

     iteration #  1     ecut=    50.00 Ry     beta= 0.70
     Davidson diagonalization with overlap
     ethr =  1.00E-02,  avg # of iterations = 11.8

     Threshold (ethr) on eigenvalues was too large:
     Diagonalizing with lowered threshold

     Davidson diagonalization with overlap
     c_bands:  4 eigenvalues not converged
     ethr =  4.70E-04,  avg # of iterations =  5.3

     negative rho (up, down):  1.976E-05 0.000E+00

     total cpu time spent up to now is        0.9 secs

     total energy              =     -22.61506855 Ry
     estimated scf accuracy    <       0.04297232 Ry

     iteration #  2     ecut=    50.00 Ry     beta= 0.70
     Davidson diagonalization with overlap
     ethr =  5.37E-04,  avg # of iterations =  1.7

     negative rho (up, down):  1.147E-06 0.000E+00

     total cpu time spent up to now is        1.0 secs

     total energy              =     -22.61900932 Ry
     estimated scf accuracy    <       0.00159159 Ry

     iteration #  3     ecut=    50.00 Ry     beta= 0.70
     Davidson diagonalization with overlap
     c_bands:  1 eigenvalues not converged
     c_bands:  1 eigenvalues not converged
     ethr =  1.99E-05,  avg # of iterations =  8.2

     total cpu time spent up to now is        1.3 secs

     total energy              =     -22.61929464 Ry
     estimated scf accuracy    <       0.00007351 Ry

     iteration #  4     ecut=    50.00 Ry     beta= 0.70
     Davidson diagonalization with overlap
     ethr =  9.19E-07,  avg # of iterations =  7.2

     total cpu time spent up to now is        1.6 secs

     total energy              =     -22.61932303 Ry
     estimated scf accuracy    <       0.00000011 Ry

     iteration #  5     ecut=    50.00 Ry     beta= 0.70
     Davidson diagonalization with overlap
     ethr =  1.34E-09,  avg # of iterations =  4.5

     total cpu time spent up to now is        1.8 secs

     End of self-consistent calculation

          k = 0.0000 0.0000 0.0000 (  6043 PWs)   bands (ev):

   -21.5617 -10.3418  -8.2365  -8.2365  -1.2192  -0.8815  -0.1936   0.5617

          k = 0.0000 0.0770 0.0000 (  6051 PWs)   bands (ev):

   -21.4825 -10.2547  -8.6494  -8.3760  -0.9694  -0.7750  -0.0868   0.6271

          k = 0.0000 0.1540 0.0000 (  6065 PWs)   bands (ev):

   -21.2461  -9.9982  -9.6690  -8.7328  -0.6993  -0.4546   0.2318   1.0490

          k = 0.0000 0.2309 0.0000 (  6101 PWs)   bands (ev):

   -20.8551 -10.9716  -9.5778  -9.1914  -0.8259   0.0774   0.1524   0.7655

          k = 0.0000 0.3079 0.0000 (  6088 PWs)   bands (ev):

   -20.3156 -12.3586  -9.6445  -9.0064  -1.1024  -0.8610   0.8201   1.5043

          k = 0.0000 0.3849 0.0000 (  6104 PWs)   bands (ev):

   -19.6408 -13.7253 -10.0269  -8.3143  -1.9579  -1.3745   1.7705   2.4480

          k = 0.0000 0.4619 0.0000 (  6124 PWs)   bands (ev):

   -18.8669 -14.9815 -10.2987  -7.5690  -3.0114  -1.5781   2.9207   3.5840

          k = 0.0000 0.5389 0.0000 (  6120 PWs)   bands (ev):

   -18.1508 -15.9444 -10.4374  -6.9760  -3.7698  -1.6857   4.2425   4.8704

          k = 0.0667 0.1155 0.0000 (  6064 PWs)   bands (ev):

   -21.3247 -10.0829  -9.3311  -8.6561  -0.6339  -0.5622   0.1258   0.6852

          k = 0.0667 0.1925 0.0000 (  6074 PWs)   bands (ev):

   -21.0109 -10.4273  -9.7440  -9.1242  -0.4368  -0.1356   0.4762   0.5544

          k = 0.0667 0.2694 0.0000 (  6084 PWs)   bands (ev):

   -20.5453 -11.7211  -9.6316  -9.2472  -0.6133  -0.4310   0.5019   1.1857

          k = 0.0667 0.3464 0.0000 (  6070 PWs)   bands (ev):

   -19.9367 -13.0658 -10.0835  -8.6122  -1.4759  -0.8827   1.3486   2.0259

          k = 0.0667 0.4234 0.0000 (  6110 PWs)   bands (ev):

   -19.2061 -14.3658 -10.4323  -7.8814  -2.5524  -1.1197   2.3991   3.0626

          k = 0.0667 0.5004 0.0000 (  6106 PWs)   bands (ev):

   -18.4224 -15.5041 -10.6487  -7.1683  -3.4941  -1.2740   3.6369   4.2694

          k = 0.0667 0.5774 0.0000 (  6112 PWs)   bands (ev):

   -17.9514 -16.0955 -10.7234  -6.8119  -3.9297  -1.3273   4.8674   5.1253

          k = 0.1333 0.2309 0.0000 (  6088 PWs)   bands (ev):

   -20.6223 -11.4143  -9.7430  -9.3287  -0.2728   0.0872   0.3944   1.1781

          k = 0.1333 0.3079 0.0000 (  6083 PWs)   bands (ev):

   -20.0864 -12.5569 -10.3606  -8.7641  -1.1959   0.1365   1.1366   1.8104

          k = 0.1333 0.3849 0.0000 (  6094 PWs)   bands (ev):

   -19.4163 -13.7693 -10.8554  -8.0776  -2.2071  -0.0639   2.0841   2.7386

          k = 0.1333 0.4619 0.0000 (  6132 PWs)   bands (ev):

   -18.6465 -14.9411 -11.1931  -7.3321  -3.1982  -0.2435   3.2222   3.8339

          k = 0.1333 0.5389 0.0000 (  6128 PWs)   bands (ev):

   -17.9258 -15.8731 -11.3627  -6.7200  -3.9404  -0.3415   4.4646   4.9612

          k = 0.2000 0.3464 0.0000 (  6102 PWs)   bands (ev):

   -19.4874 -13.4783 -11.1129  -8.1446  -2.0756   0.9258   1.9788   2.1251

          k = 0.2000 0.4234 0.0000 (  6129 PWs)   bands (ev):

   -18.7678 -14.4782 -11.6950  -7.4239  -3.0032   1.0554   2.9777   3.1399

          k = 0.2000 0.5004 0.0000 (  6142 PWs)   bands (ev):

   -17.9875 -15.4600 -12.0423  -6.6911  -3.8677   0.9777   4.0080   4.4399

          k = 0.2000 0.5774 0.0000 (  6152 PWs)   bands (ev):

   -17.4935 -16.0277 -12.1565  -6.2907  -4.3149   0.9406   4.5013   5.0406

          k = 0.2667 0.4619 0.0000 (  6154 PWs)   bands (ev):

   -18.0200 -15.2330 -12.3612  -6.6883  -3.8250   1.9853   3.2327   4.1804

          k = 0.2667 0.5389 0.0000 (  6170 PWs)   bands (ev):

   -17.2751 -15.9811 -12.7125  -5.9934  -4.5609   2.2486   3.7908   4.8073

          k = 0.3333 0.5774 0.0000 (  6180 PWs)   bands (ev):

   -16.5827 -16.5827 -12.9705  -5.2740  -5.2740   3.2417   3.2417   4.7547

     the Fermi energy is    -5.2740 ev

!    total energy              =     -22.61932422 Ry
     estimated scf accuracy    <          5.6E-09 Ry
     smearing contrib. (-TS)   =      -0.00005015 Ry
     internal energy E=F+TS    =     -22.61927406 Ry

     The total energy is F=E-TS. E is the sum of the following terms:
     one-electron contribution =    -287.39370399 Ry
     hartree contribution      =     144.10110940 Ry
     xc contribution           =      -6.44577932 Ry
     ewald contribution        =     127.11909985 Ry

     convergence has been achieved in   5 iterations

     Forces acting on atoms (cartesian axes, Ry/au):

     atom    1 type  1   force =     0.00000000    0.00000000    0.00000000
     atom    2 type  1   force =     0.00000000    0.00000000    0.00000000

     Total force =     0.000000     Total SCF correction =     0.000000


     Computing stress (Cartesian axis) and pressure

          total   stress  (Ry/bohr**3)                   (kbar)     P=     -106.70
  -0.00105251   0.00000000   0.00000000         -154.83        0.00        0.00
   0.00000000  -0.00105251   0.00000000            0.00     -154.83        0.00
  -0.00000000   0.00000000  -0.00007088           -0.00        0.00      -10.43


     Writing output data file ./work/LiC540.save/
 
     init_run     :      0.11s CPU      0.12s WALL (       1 calls)
     electrons    :      1.55s CPU      1.68s WALL (       1 calls)
     forces       :      0.01s CPU      0.01s WALL (       1 calls)
     stress       :      0.02s CPU      0.02s WALL (       1 calls)

     Called by init_run:
     wfcinit      :      0.07s CPU      0.07s WALL (       1 calls)
     potinit      :      0.03s CPU      0.03s WALL (       1 calls)
     hinit0       :      0.01s CPU      0.01s WALL (       1 calls)

     Called by electrons:
     c_bands      :      1.40s CPU      1.49s WALL (       6 calls)
     sum_band     :      0.14s CPU      0.15s WALL (       6 calls)
     v_of_rho     :      0.01s CPU      0.02s WALL (       6 calls)
     mix_rho      :      0.00s CPU      0.00s WALL (       6 calls)

     Called by c_bands:
     init_us_2    :      0.01s CPU      0.01s WALL (     405 calls)
     cegterg      :      1.37s CPU      1.46s WALL (     162 calls)

     Called by *egterg:
     cdiaghg      :      0.11s CPU      0.12s WALL (    1179 calls)
     h_psi        :      1.22s CPU      1.30s WALL (    1233 calls)
     g_psi        :      0.00s CPU      0.00s WALL (    1044 calls)

     Called by h_psi:
     h_psi:calbec :      0.04s CPU      0.05s WALL (    1233 calls)
     vloc_psi     :      1.15s CPU      1.23s WALL (    1233 calls)
     add_vuspsi   :      0.01s CPU      0.01s WALL (    1233 calls)

     General routines
     calbec       :      0.05s CPU      0.05s WALL (    1368 calls)
     fft          :      0.01s CPU      0.02s WALL (      68 calls)
     ffts         :      0.00s CPU      0.00s WALL (       6 calls)
     fftw         :      1.23s CPU      1.31s WALL (   13010 calls)
 
     Parallel routines
     fft_scatt_xy :      0.06s CPU      0.07s WALL (   13084 calls)
     fft_scatt_yz :      0.55s CPU      0.59s WALL (   13084 calls)
 
     PWSCF        :      1.73s CPU      2.17s WALL

 
   This run was terminated on:  10:38:12  22Jan2024            

=------------------------------------------------------------------------------=
   JOB DONE.
=------------------------------------------------------------------------------=
