
     Program PWSCF v.6.7MaX starts on 22Jan2024 at 10:38: 7 

     This program is part of the open-source Quantum ESPRESSO suite
     for quantum simulation of materials; please cite
         "P. Giannozzi et al., J. Phys.:Condens. Matter 21 395502 (2009);
         "P. Giannozzi et al., J. Phys.:Condens. Matter 29 465901 (2017);
          URL http://www.quantum-espresso.org", 
     in publications or presentations arising from this work. More details at
     http://www.quantum-espresso.org/quote

     Parallel version (MPI), running on    32 processors

     MPI processes distributed on     1 nodes
     R & G space division:  proc/nbgrp/npool/nimage =      32
     Waiting for input...
     Reading input from standard input
Warning: card &CELL ignored
Warning: card  CELL_DYNAMICS = 'BFGS', ignored
Warning: card  PRESS = 0.0, ignored
Warning: card  PRESS_CONV_THR = 1D-3, ignored
Warning: card  CELL_DOFREE='2DXY' ignored
Warning: card / ignored

     Current dimensions of program PWSCF are:
     Max number of different atomic species (ntypx) = 10
     Max number of k-points (npk) =  40000
     Max angular momentum in pseudopotentials (lmaxx) =  3
     Message from routine read_pp_mesh:
     mesh size missing, using the one in header

     Subspace diagonalization in iterative solution of the eigenvalue problem:
     a serial algorithm will be used

 
     Parallelization info
     --------------------
     sticks:   dense  smooth     PW     G-vecs:    dense   smooth      PW
     Min          11      11      3                 1435     1435     235
     Max          12      12      4                 1482     1482     268
     Sum         379     379    121                46941    46941    8141
 


     bravais-lattice index     =            4
     lattice parameter (alat)  =       5.3000  a.u.
     unit-cell volume          =     985.2295 (a.u.)^3
     number of atoms/cell      =            2
     number of atomic types    =            1
     number of electrons       =         8.00
     number of Kohn-Sham states=            8
     kinetic-energy cutoff     =      50.0000  Ry
     charge density cutoff     =     200.0000  Ry
     scf convergence threshold =      1.0E-08
     mixing beta               =       0.7000
     number of iterations used =            8  plain     mixing
     Exchange-correlation= PBE
                           (   1   4   3   4   0   0   0)

     celldm(1)=   5.300000  celldm(2)=   0.000000  celldm(3)=   7.641509
     celldm(4)=   0.000000  celldm(5)=   0.000000  celldm(6)=   0.000000

     crystal axes: (cart. coord. in units of alat)
               a(1) = (   1.000000   0.000000   0.000000 )  
               a(2) = (  -0.500000   0.866025   0.000000 )  
               a(3) = (   0.000000   0.000000   7.641509 )  

     reciprocal axes: (cart. coord. in units 2 pi/alat)
               b(1) = (  1.000000  0.577350  0.000000 )  
               b(2) = (  0.000000  1.154701  0.000000 )  
               b(3) = (  0.000000  0.000000  0.130864 )  


     PseudoPot. # 1 for C  read from file:
     /home/yhkim/qe-6.7/pseudo/ONCV1/1.2/C_ONCV_PBE-1.2.upf
     MD5 check sum: 1a5f83a7b1f58d24996abe00ed223ac6
     Pseudo is Norm-conserving, Zval =  4.0
     Generated using ONCVPSP code by D. R. Hamann
     Using radial grid of  602 points,  4 beta functions with: 
                l(1) =   0
                l(2) =   0
                l(3) =   1
                l(4) =   1

     atomic species   valence    mass     pseudopotential
        C              4.00    12.01070     C ( 1.00)

     24 Sym. Ops., with inversion, found



   Cartesian axes

     site n.     atom                  positions (alat units)
         1           C   tau(   1) = (  -0.0000000   0.5773503   3.8207547  )
         2           C   tau(   2) = (   0.5000000   0.2886751   3.8207547  )

     number of k points=    27  Methfessel-Paxton smearing, width (Ry)=  0.0100
                       cart. coord. in units 2pi/alat
        k(    1) = (   0.0000000   0.0000000   0.0000000), wk =   0.0088889
        k(    2) = (   0.0000000   0.0769800   0.0000000), wk =   0.0533333
        k(    3) = (   0.0000000   0.1539601   0.0000000), wk =   0.0533333
        k(    4) = (   0.0000000   0.2309401   0.0000000), wk =   0.0533333
        k(    5) = (   0.0000000   0.3079201   0.0000000), wk =   0.0533333
        k(    6) = (   0.0000000   0.3849002   0.0000000), wk =   0.0533333
        k(    7) = (   0.0000000   0.4618802   0.0000000), wk =   0.0533333
        k(    8) = (   0.0000000   0.5388603   0.0000000), wk =   0.0533333
        k(    9) = (   0.0666667   0.1154701   0.0000000), wk =   0.0533333
        k(   10) = (   0.0666667   0.1924501   0.0000000), wk =   0.1066667
        k(   11) = (   0.0666667   0.2694301   0.0000000), wk =   0.1066667
        k(   12) = (   0.0666667   0.3464102   0.0000000), wk =   0.1066667
        k(   13) = (   0.0666667   0.4233902   0.0000000), wk =   0.1066667
        k(   14) = (   0.0666667   0.5003702   0.0000000), wk =   0.1066667
        k(   15) = (   0.0666667   0.5773503   0.0000000), wk =   0.0533333
        k(   16) = (   0.1333333   0.2309401   0.0000000), wk =   0.0533333
        k(   17) = (   0.1333333   0.3079201   0.0000000), wk =   0.1066667
        k(   18) = (   0.1333333   0.3849002   0.0000000), wk =   0.1066667
        k(   19) = (   0.1333333   0.4618802   0.0000000), wk =   0.1066667
        k(   20) = (   0.1333333   0.5388603   0.0000000), wk =   0.1066667
        k(   21) = (   0.2000000   0.3464102   0.0000000), wk =   0.0533333
        k(   22) = (   0.2000000   0.4233902   0.0000000), wk =   0.1066667
        k(   23) = (   0.2000000   0.5003702   0.0000000), wk =   0.1066667
        k(   24) = (   0.2000000   0.5773503   0.0000000), wk =   0.0533333
        k(   25) = (   0.2666667   0.4618802   0.0000000), wk =   0.0533333
        k(   26) = (   0.2666667   0.5388603   0.0000000), wk =   0.1066667
        k(   27) = (   0.3333333   0.5773503   0.0000000), wk =   0.0177778

     Dense  grid:    46941 G-vectors     FFT dimensions: (  24,  24, 192)

     Estimated max dynamical RAM per process >       1.93 MB

     Estimated total dynamical RAM >      61.82 MB
 ----2D----2D----2D----2D----2D----2D----2D----2D----2D----2D----2D----2D
  The code is running with the 2D cutoff
  Please refer to:
  Sohier, T., Calandra, M., & Mauri, F. (2017), 
  Density functional perturbation theory for gated two-dimensional heterostructu
 res:
  Theoretical developments and application to flexural phonons in graphene.
  Physical Review B, 96(7), 75448. https://doi.org/10.1103/PhysRevB.96.075448
 ----2D----2D----2D----2D----2D----2D----2D----2D----2D----2D----2D----2D

     Initial potential from superposition of free atoms

     starting charge    7.98607, renormalised to    8.00000

     negative rho (up, down):  1.300E-04 0.000E+00
     Starting wfcs are random

     total cpu time spent up to now is        0.1 secs

     Self-consistent Calculation

     iteration #  1     ecut=    50.00 Ry     beta= 0.70
     Davidson diagonalization with overlap
     ethr =  1.00E-02,  avg # of iterations = 12.2

     Threshold (ethr) on eigenvalues was too large:
     Diagonalizing with lowered threshold

     Davidson diagonalization with overlap
     ethr =  5.64E-04,  avg # of iterations =  4.6

     negative rho (up, down):  2.031E-05 0.000E+00

     total cpu time spent up to now is        0.7 secs

     total energy              =     -22.64967554 Ry
     estimated scf accuracy    <       0.05266158 Ry

     iteration #  2     ecut=    50.00 Ry     beta= 0.70
     Davidson diagonalization with overlap
     ethr =  6.58E-04,  avg # of iterations =  2.0

     negative rho (up, down):  1.563E-06 0.000E+00

     total cpu time spent up to now is        0.8 secs

     total energy              =     -22.65516468 Ry
     estimated scf accuracy    <       0.00165764 Ry

     iteration #  3     ecut=    50.00 Ry     beta= 0.70
     Davidson diagonalization with overlap
     c_bands:  1 eigenvalues not converged
     ethr =  2.07E-05,  avg # of iterations =  7.6

     total cpu time spent up to now is        1.1 secs

     total energy              =     -22.65550889 Ry
     estimated scf accuracy    <       0.00008675 Ry

     iteration #  4     ecut=    50.00 Ry     beta= 0.70
     Davidson diagonalization with overlap
     c_bands:  1 eigenvalues not converged
     c_bands:  1 eigenvalues not converged
     ethr =  1.08E-06,  avg # of iterations =  7.8

     total cpu time spent up to now is        1.3 secs

     total energy              =     -22.65553549 Ry
     estimated scf accuracy    <       0.00000017 Ry

     iteration #  5     ecut=    50.00 Ry     beta= 0.70
     Davidson diagonalization with overlap
     ethr =  2.11E-09,  avg # of iterations =  4.9

     total cpu time spent up to now is        1.5 secs

     total energy              =     -22.65553695 Ry
     estimated scf accuracy    <       0.00000001 Ry

     iteration #  6     ecut=    50.00 Ry     beta= 0.70
     Davidson diagonalization with overlap
     ethr =  1.70E-10,  avg # of iterations =  2.1

     total cpu time spent up to now is        1.6 secs

     End of self-consistent calculation

          k = 0.0000 0.0000 0.0000 (  5809 PWs)   bands (ev):

   -21.8360 -10.5165  -8.1728  -8.1728  -0.8946  -0.2180  -0.1940   0.6180

          k = 0.0000 0.0770 0.0000 (  5815 PWs)   bands (ev):

   -21.7538 -10.4257  -8.5761  -8.3198  -0.7840  -0.0833  -0.0040   0.7309

          k = 0.0000 0.1540 0.0000 (  5805 PWs)   bands (ev):

   -21.5080 -10.1554  -9.5946  -8.6965  -0.4525   0.0678   0.2482   1.0684

          k = 0.0000 0.2309 0.0000 (  5860 PWs)   bands (ev):

   -21.1016 -10.9211  -9.7137  -9.1810  -0.1977   0.1009   0.5927   0.8118

          k = 0.0000 0.3079 0.0000 (  5858 PWs)   bands (ev):

   -20.5401 -12.3480  -9.6584  -9.1121  -0.5298  -0.4897   0.8712   1.5733

          k = 0.0000 0.3849 0.0000 (  5856 PWs)   bands (ev):

   -19.8364 -13.7590 -10.0592  -8.3816  -1.6687  -0.8281   1.8579   2.5559

          k = 0.0000 0.4619 0.0000 (  5854 PWs)   bands (ev):

   -19.0244 -15.0655 -10.3463  -7.5931  -2.7946  -1.0445   3.0532   3.7405

          k = 0.0000 0.5389 0.0000 (  5892 PWs)   bands (ev):

   -18.2589 -16.0862 -10.4947  -6.9619  -3.6091  -1.1593   4.4327   5.0885

          k = 0.0667 0.1155 0.0000 (  5814 PWs)   bands (ev):

   -21.5898 -10.2457  -9.2518  -8.6145  -0.5629   0.1379   0.2662   0.9583

          k = 0.0667 0.1925 0.0000 (  5840 PWs)   bands (ev):

   -21.2636 -10.3594  -9.8894  -9.1095  -0.1213   0.2938   0.5782   0.9576

          k = 0.0667 0.2694 0.0000 (  5866 PWs)   bands (ev):

   -20.7794 -11.6846  -9.6437  -9.3668  -0.0266   0.0046   0.5412   1.2413

          k = 0.0667 0.3464 0.0000 (  5880 PWs)   bands (ev):

   -20.1455 -13.0726 -10.1202  -8.6973  -1.1493  -0.3101   1.4199   2.1160

          k = 0.0667 0.4234 0.0000 (  5886 PWs)   bands (ev):

   -19.3818 -14.4190 -10.4864  -7.9243  -2.3016  -0.5671   2.5111   3.1966

          k = 0.0667 0.5004 0.0000 (  5885 PWs)   bands (ev):

   -18.5546 -15.6115 -10.7134  -7.1679  -3.3084  -0.7323   3.7999   4.4578

          k = 0.0667 0.5774 0.0000 (  5898 PWs)   bands (ev):

   -18.0433 -16.2472 -10.7911  -6.7874  -3.7772  -0.7893   5.1242   5.3476

          k = 0.1333 0.2309 0.0000 (  5860 PWs)   bands (ev):

   -20.8595 -11.3590  -9.7643  -9.4519   0.1462   0.4303   0.8677   1.1286

          k = 0.1333 0.3079 0.0000 (  5880 PWs)   bands (ev):

   -20.3017 -12.5304 -10.4155  -8.8572  -0.8436   0.8007   1.2003   1.8912

          k = 0.1333 0.3849 0.0000 (  5895 PWs)   bands (ev):

   -19.6029 -13.7835 -10.9341  -8.1328  -1.9247   0.5448   2.1837   2.8583

          k = 0.1333 0.4619 0.0000 (  5904 PWs)   bands (ev):

   -18.7958 -15.0036 -11.2847  -7.3433  -2.9827   0.3432   3.3689   4.0021

          k = 0.1333 0.5389 0.0000 (  5921 PWs)   bands (ev):

   -18.0278 -15.9910 -11.4605  -6.6928  -3.7780   0.2350   4.6980   5.1891

          k = 0.2000 0.3464 0.0000 (  5888 PWs)   bands (ev):

   -19.6775 -13.4654 -11.2126  -8.2036  -1.7807   1.6733   2.0740   2.6262

          k = 0.2000 0.4234 0.0000 (  5905 PWs)   bands (ev):

   -18.9259 -14.4947 -11.8242  -7.4417  -2.7672   1.7334   3.1470   3.7605

          k = 0.2000 0.5004 0.0000 (  5918 PWs)   bands (ev):

   -18.1051 -15.5215 -12.1845  -6.6662  -3.6889   1.6215   4.3487   4.7890

          k = 0.2000 0.5774 0.0000 (  5940 PWs)   bands (ev):

   -17.5742 -16.1291 -12.3029  -6.2399  -4.1662   1.5750   5.0703   5.2595

          k = 0.2667 0.4619 0.0000 (  5928 PWs)   bands (ev):

   -18.1435 -15.2593 -12.5343  -6.6648  -3.6381   2.7269   3.8157   4.3942

          k = 0.2667 0.5389 0.0000 (  5932 PWs)   bands (ev):

   -17.3590 -16.0353 -12.9086  -5.9277  -4.4166   2.9556   4.4653   4.9978

          k = 0.3333 0.5774 0.0000 (  5946 PWs)   bands (ev):

   -16.6413 -16.6413 -13.1933  -5.1670  -5.1670   3.9662   3.9662   4.9306

     the Fermi energy is    -5.1670 ev

!    total energy              =     -22.65553696 Ry
     estimated scf accuracy    <          3.2E-10 Ry
     smearing contrib. (-TS)   =      -0.00005015 Ry
     internal energy E=F+TS    =     -22.65548681 Ry

     The total energy is F=E-TS. E is the sum of the following terms:
     one-electron contribution =    -298.37317881 Ry
     hartree contribution      =     149.61021102 Ry
     xc contribution           =      -6.50950042 Ry
     ewald contribution        =     132.61698139 Ry

     convergence has been achieved in   6 iterations

     Forces acting on atoms (cartesian axes, Ry/au):

     atom    1 type  1   force =     0.00000000    0.00000000    0.00000000
     atom    2 type  1   force =     0.00000000    0.00000000    0.00000000

     Total force =     0.000000     Total SCF correction =     0.000000


     Computing stress (Cartesian axis) and pressure

          total   stress  (Ry/bohr**3)                   (kbar)     P=     -103.03
  -0.00101352  -0.00000000   0.00000000         -149.09       -0.00        0.00
  -0.00000000  -0.00101352   0.00000000           -0.00     -149.09        0.00
   0.00000000  -0.00000000  -0.00007407            0.00       -0.00      -10.90


     Writing output data file ./work/LiC530.save/
 
     init_run     :      0.08s CPU      0.09s WALL (       1 calls)
     electrons    :      1.37s CPU      1.49s WALL (       1 calls)
     forces       :      0.01s CPU      0.01s WALL (       1 calls)
     stress       :      0.03s CPU      0.03s WALL (       1 calls)

     Called by init_run:
     wfcinit      :      0.06s CPU      0.07s WALL (       1 calls)
     potinit      :      0.01s CPU      0.01s WALL (       1 calls)
     hinit0       :      0.00s CPU      0.01s WALL (       1 calls)

     Called by electrons:
     c_bands      :      1.22s CPU      1.31s WALL (       7 calls)
     sum_band     :      0.13s CPU      0.14s WALL (       7 calls)
     v_of_rho     :      0.01s CPU      0.02s WALL (       7 calls)
     mix_rho      :      0.00s CPU      0.00s WALL (       7 calls)

     Called by c_bands:
     init_us_2    :      0.01s CPU      0.01s WALL (     459 calls)
     cegterg      :      1.19s CPU      1.28s WALL (     189 calls)

     Called by *egterg:
     cdiaghg      :      0.12s CPU      0.13s WALL (    1276 calls)
     h_psi        :      1.02s CPU      1.10s WALL (    1330 calls)
     g_psi        :      0.00s CPU      0.00s WALL (    1114 calls)

     Called by h_psi:
     h_psi:calbec :      0.04s CPU      0.05s WALL (    1330 calls)
     vloc_psi     :      0.96s CPU      1.03s WALL (    1330 calls)
     add_vuspsi   :      0.01s CPU      0.01s WALL (    1330 calls)

     General routines
     calbec       :      0.05s CPU      0.05s WALL (    1465 calls)
     fft          :      0.01s CPU      0.02s WALL (      78 calls)
     ffts         :      0.00s CPU      0.00s WALL (       7 calls)
     fftw         :      1.02s CPU      1.10s WALL (   14328 calls)
 
     Parallel routines
     fft_scatt_xy :      0.07s CPU      0.07s WALL (   14413 calls)
     fft_scatt_yz :      0.60s CPU      0.64s WALL (   14413 calls)
 
     PWSCF        :      1.54s CPU      1.94s WALL

 
   This run was terminated on:  10:38: 9  22Jan2024            

=------------------------------------------------------------------------------=
   JOB DONE.
=------------------------------------------------------------------------------=
