
     Program PWSCF v.6.7MaX starts on 22Jan2024 at 10:38:16 

     This program is part of the open-source Quantum ESPRESSO suite
     for quantum simulation of materials; please cite
         "P. Giannozzi et al., J. Phys.:Condens. Matter 21 395502 (2009);
         "P. Giannozzi et al., J. Phys.:Condens. Matter 29 465901 (2017);
          URL http://www.quantum-espresso.org", 
     in publications or presentations arising from this work. More details at
     http://www.quantum-espresso.org/quote

     Parallel version (MPI), running on    32 processors

     MPI processes distributed on     1 nodes
     R & G space division:  proc/nbgrp/npool/nimage =      32
     Waiting for input...
     Reading input from standard input
Warning: card &CELL ignored
Warning: card  CELL_DYNAMICS = 'BFGS', ignored
Warning: card  PRESS = 0.0, ignored
Warning: card  PRESS_CONV_THR = 1D-3, ignored
Warning: card  CELL_DOFREE='2DXY' ignored
Warning: card / ignored

     Current dimensions of program PWSCF are:
     Max number of different atomic species (ntypx) = 10
     Max number of k-points (npk) =  40000
     Max angular momentum in pseudopotentials (lmaxx) =  3
     Message from routine read_pp_mesh:
     mesh size missing, using the one in header

     Subspace diagonalization in iterative solution of the eigenvalue problem:
     a serial algorithm will be used

 
     Parallelization info
     --------------------
     sticks:   dense  smooth     PW     G-vecs:    dense   smooth      PW
     Min          13      13      3                 1629     1629     243
     Max          14      14      4                 1666     1666     286
     Sum         433     433    127                52611    52611    8759
 


     bravais-lattice index     =            4
     lattice parameter (alat)  =       5.6000  a.u.
     unit-cell volume          =    1099.9215 (a.u.)^3
     number of atoms/cell      =            2
     number of atomic types    =            1
     number of electrons       =         8.00
     number of Kohn-Sham states=            8
     kinetic-energy cutoff     =      50.0000  Ry
     charge density cutoff     =     200.0000  Ry
     scf convergence threshold =      1.0E-08
     mixing beta               =       0.7000
     number of iterations used =            8  plain     mixing
     Exchange-correlation= PBE
                           (   1   4   3   4   0   0   0)

     celldm(1)=   5.600000  celldm(2)=   0.000000  celldm(3)=   7.232143
     celldm(4)=   0.000000  celldm(5)=   0.000000  celldm(6)=   0.000000

     crystal axes: (cart. coord. in units of alat)
               a(1) = (   1.000000   0.000000   0.000000 )  
               a(2) = (  -0.500000   0.866025   0.000000 )  
               a(3) = (   0.000000   0.000000   7.232143 )  

     reciprocal axes: (cart. coord. in units 2 pi/alat)
               b(1) = (  1.000000  0.577350  0.000000 )  
               b(2) = (  0.000000  1.154701  0.000000 )  
               b(3) = (  0.000000  0.000000  0.138272 )  


     PseudoPot. # 1 for C  read from file:
     /home/yhkim/qe-6.7/pseudo/ONCV1/1.2/C_ONCV_PBE-1.2.upf
     MD5 check sum: 1a5f83a7b1f58d24996abe00ed223ac6
     Pseudo is Norm-conserving, Zval =  4.0
     Generated using ONCVPSP code by D. R. Hamann
     Using radial grid of  602 points,  4 beta functions with: 
                l(1) =   0
                l(2) =   0
                l(3) =   1
                l(4) =   1

     atomic species   valence    mass     pseudopotential
        C              4.00    12.01070     C ( 1.00)

     24 Sym. Ops., with inversion, found



   Cartesian axes

     site n.     atom                  positions (alat units)
         1           C   tau(   1) = (  -0.0000000   0.5773503   3.6160714  )
         2           C   tau(   2) = (   0.5000000   0.2886751   3.6160714  )

     number of k points=    27  Methfessel-Paxton smearing, width (Ry)=  0.0100
                       cart. coord. in units 2pi/alat
        k(    1) = (   0.0000000   0.0000000   0.0000000), wk =   0.0088889
        k(    2) = (   0.0000000   0.0769800   0.0000000), wk =   0.0533333
        k(    3) = (   0.0000000   0.1539601   0.0000000), wk =   0.0533333
        k(    4) = (   0.0000000   0.2309401   0.0000000), wk =   0.0533333
        k(    5) = (   0.0000000   0.3079201   0.0000000), wk =   0.0533333
        k(    6) = (   0.0000000   0.3849002   0.0000000), wk =   0.0533333
        k(    7) = (   0.0000000   0.4618802   0.0000000), wk =   0.0533333
        k(    8) = (   0.0000000   0.5388603   0.0000000), wk =   0.0533333
        k(    9) = (   0.0666667   0.1154701   0.0000000), wk =   0.0533333
        k(   10) = (   0.0666667   0.1924501   0.0000000), wk =   0.1066667
        k(   11) = (   0.0666667   0.2694301   0.0000000), wk =   0.1066667
        k(   12) = (   0.0666667   0.3464102   0.0000000), wk =   0.1066667
        k(   13) = (   0.0666667   0.4233902   0.0000000), wk =   0.1066667
        k(   14) = (   0.0666667   0.5003702   0.0000000), wk =   0.1066667
        k(   15) = (   0.0666667   0.5773503   0.0000000), wk =   0.0533333
        k(   16) = (   0.1333333   0.2309401   0.0000000), wk =   0.0533333
        k(   17) = (   0.1333333   0.3079201   0.0000000), wk =   0.1066667
        k(   18) = (   0.1333333   0.3849002   0.0000000), wk =   0.1066667
        k(   19) = (   0.1333333   0.4618802   0.0000000), wk =   0.1066667
        k(   20) = (   0.1333333   0.5388603   0.0000000), wk =   0.1066667
        k(   21) = (   0.2000000   0.3464102   0.0000000), wk =   0.0533333
        k(   22) = (   0.2000000   0.4233902   0.0000000), wk =   0.1066667
        k(   23) = (   0.2000000   0.5003702   0.0000000), wk =   0.1066667
        k(   24) = (   0.2000000   0.5773503   0.0000000), wk =   0.0533333
        k(   25) = (   0.2666667   0.4618802   0.0000000), wk =   0.0533333
        k(   26) = (   0.2666667   0.5388603   0.0000000), wk =   0.1066667
        k(   27) = (   0.3333333   0.5773503   0.0000000), wk =   0.0177778

     Dense  grid:    52611 G-vectors     FFT dimensions: (  25,  25, 192)

     Estimated max dynamical RAM per process >       2.14 MB

     Estimated total dynamical RAM >      68.46 MB
 ----2D----2D----2D----2D----2D----2D----2D----2D----2D----2D----2D----2D
  The code is running with the 2D cutoff
  Please refer to:
  Sohier, T., Calandra, M., & Mauri, F. (2017), 
  Density functional perturbation theory for gated two-dimensional heterostructu
 res:
  Theoretical developments and application to flexural phonons in graphene.
  Physical Review B, 96(7), 75448. https://doi.org/10.1103/PhysRevB.96.075448
 ----2D----2D----2D----2D----2D----2D----2D----2D----2D----2D----2D----2D

     Initial potential from superposition of free atoms

     starting charge    7.98607, renormalised to    8.00000

     negative rho (up, down):  1.448E-04 0.000E+00
     Starting wfcs are random

     total cpu time spent up to now is        0.1 secs

     Self-consistent Calculation

     iteration #  1     ecut=    50.00 Ry     beta= 0.70
     Davidson diagonalization with overlap
     ethr =  1.00E-02,  avg # of iterations = 12.1

     Threshold (ethr) on eigenvalues was too large:
     Diagonalizing with lowered threshold

     Davidson diagonalization with overlap
     ethr =  3.21E-04,  avg # of iterations =  5.6

     negative rho (up, down):  2.220E-05 0.000E+00

     total cpu time spent up to now is        0.9 secs

     total energy              =     -22.54006900 Ry
     estimated scf accuracy    <       0.02892375 Ry

     iteration #  2     ecut=    50.00 Ry     beta= 0.70
     Davidson diagonalization with overlap
     ethr =  3.62E-04,  avg # of iterations =  1.2

     negative rho (up, down):  7.456E-07 0.000E+00

     total cpu time spent up to now is        1.1 secs

     total energy              =     -22.54197449 Ry
     estimated scf accuracy    <       0.00148800 Ry

     iteration #  3     ecut=    50.00 Ry     beta= 0.70
     Davidson diagonalization with overlap
     ethr =  1.86E-05,  avg # of iterations =  7.8

     total cpu time spent up to now is        1.3 secs

     total energy              =     -22.54217390 Ry
     estimated scf accuracy    <       0.00004021 Ry

     iteration #  4     ecut=    50.00 Ry     beta= 0.70
     Davidson diagonalization with overlap
     c_bands:  1 eigenvalues not converged
     ethr =  5.03E-07,  avg # of iterations =  8.7

     total cpu time spent up to now is        1.6 secs

     total energy              =     -22.54219654 Ry
     estimated scf accuracy    <       0.00000011 Ry

     iteration #  5     ecut=    50.00 Ry     beta= 0.70
     Davidson diagonalization with overlap
     ethr =  1.33E-09,  avg # of iterations =  4.7

     total cpu time spent up to now is        1.8 secs

     End of self-consistent calculation

          k = 0.0000 0.0000 0.0000 (  6607 PWs)   bands (ev):

   -21.0386 -10.0135  -8.3494  -8.3494  -3.0188  -0.8567  -0.1933  -0.1394

          k = 0.0000 0.0770 0.0000 (  6585 PWs)   bands (ev):

   -20.9653  -9.9349  -8.7773  -8.4699  -2.7150  -0.7586  -0.0947  -0.0942

          k = 0.0000 0.1540 0.0000 (  6583 PWs)   bands (ev):

   -20.7462  -9.8029  -9.7019  -8.7862  -2.2124  -0.4629   0.0531   0.2155

          k = 0.0000 0.2309 0.0000 (  6587 PWs)   bands (ev):

   -20.3844 -11.0649  -9.3219  -9.1953  -2.0561  -0.6566   0.0338   0.6929

          k = 0.0000 0.3079 0.0000 (  6555 PWs)   bands (ev):

   -19.8862 -12.3830  -9.6027  -8.8066  -2.1831  -1.5313   0.7263   1.3775

          k = 0.0000 0.3849 0.0000 (  6567 PWs)   bands (ev):

   -19.2660 -13.6618  -9.9484  -8.1852  -2.4879  -2.3803   1.6106   2.2488

          k = 0.0000 0.4619 0.0000 (  6581 PWs)   bands (ev):

   -18.5625 -14.8209 -10.1960  -7.5204  -3.4067  -2.5459   2.6774   3.2946

          k = 0.0000 0.5389 0.0000 (  6588 PWs)   bands (ev):

   -17.9337 -15.6816 -10.3249  -6.9949  -4.0692  -2.6364   3.8809   4.4667

          k = 0.0667 0.1155 0.0000 (  6583 PWs)   bands (ev):

   -20.8191  -9.7795  -9.4715  -8.7161  -2.2833  -0.5626  -0.0313   0.1031

          k = 0.0667 0.1925 0.0000 (  6572 PWs)   bands (ev):

   -20.5285 -10.5510  -9.4723  -9.1338  -1.8619  -0.3771  -0.1690   0.2940

          k = 0.0667 0.2694 0.0000 (  6574 PWs)   bands (ev):

   -20.0981 -11.7909  -9.5909  -9.0239  -1.8038  -1.1628   0.4281   1.1394

          k = 0.0667 0.3464 0.0000 (  6577 PWs)   bands (ev):

   -19.5373 -13.0583 -10.0021  -8.4522  -2.0717  -1.9548   1.2179   1.8596

          k = 0.0667 0.4234 0.0000 (  6586 PWs)   bands (ev):

   -18.8681 -14.2650 -10.3206  -7.7970  -3.0116  -2.1314   2.1942   2.8159

          k = 0.0667 0.5004 0.0000 (  6574 PWs)   bands (ev):

   -18.1641 -15.3026 -10.5191  -7.1628  -3.8331  -2.2571   3.3315   3.9221

          k = 0.0667 0.5774 0.0000 (  6556 PWs)   bands (ev):

   -17.7608 -15.8187 -10.5852  -6.8491  -4.2123  -2.3010   4.2685   4.7171

          k = 0.1333 0.2309 0.0000 (  6581 PWs)   bands (ev):

   -20.1691 -11.5171  -9.6855  -9.0969  -1.3454  -1.0289   0.2940   0.4265

          k = 0.1333 0.3079 0.0000 (  6570 PWs)   bands (ev):

   -19.6745 -12.6094 -10.2415  -8.5883  -1.8347  -1.1255   0.9836   1.0658

          k = 0.1333 0.3849 0.0000 (  6567 PWs)   bands (ev):

   -19.0583 -13.7436 -10.6948  -7.9718  -2.7190  -1.1975   1.9016   2.0988

          k = 0.1333 0.4619 0.0000 (  6559 PWs)   bands (ev):

   -18.3570 -14.8218 -11.0069  -7.3045  -3.5869  -1.3173   2.9297   3.2331

          k = 0.1333 0.5389 0.0000 (  6560 PWs)   bands (ev):

   -17.7202 -15.6559 -11.1648  -6.7632  -4.2367  -1.3915   3.7637   4.3739

          k = 0.2000 0.3464 0.0000 (  6568 PWs)   bands (ev):

   -19.1227 -13.5007 -10.9125  -8.0309  -2.6096  -0.4338   1.2030   1.8038

          k = 0.2000 0.4234 0.0000 (  6563 PWs)   bands (ev):

   -18.4628 -14.4419 -11.4370  -7.3843  -3.4294  -0.1960   1.9735   2.7753

          k = 0.2000 0.5004 0.0000 (  6555 PWs)   bands (ev):

   -17.7561 -15.3416 -11.7557  -6.7322  -4.1922  -0.1998   2.8651   3.9508

          k = 0.2000 0.5774 0.0000 (  6554 PWs)   bands (ev):

   -17.3248 -15.8417 -11.8614  -6.3781  -4.5848  -0.2169   3.2587   4.6431

          k = 0.2667 0.4619 0.0000 (  6544 PWs)   bands (ev):

   -17.7785 -15.1730 -12.0186  -6.7270  -4.1643   0.6431   2.1066   3.8285

          k = 0.2667 0.5389 0.0000 (  6525 PWs)   bands (ev):

   -17.1040 -15.8697 -12.3271  -6.1081  -4.8190   0.9601   2.5003   4.4592

          k = 0.3333 0.5774 0.0000 (  6486 PWs)   bands (ev):

   -16.4574 -16.4574 -12.5416  -5.4609  -5.4609   1.9053   1.9053   4.4336

     the Fermi energy is    -5.4609 ev

!    total energy              =     -22.54219702 Ry
     estimated scf accuracy    <          4.6E-09 Ry
     smearing contrib. (-TS)   =      -0.00005015 Ry
     internal energy E=F+TS    =     -22.54214687 Ry

     The total energy is F=E-TS. E is the sum of the following terms:
     one-electron contribution =    -267.22491656 Ry
     hartree contribution      =     133.98473601 Ry
     xc contribution           =      -6.32865129 Ry
     ewald contribution        =     117.02668497 Ry

     convergence has been achieved in   5 iterations

     Forces acting on atoms (cartesian axes, Ry/au):

     atom    1 type  1   force =     0.00000000    0.00000000    0.00000000
     atom    2 type  1   force =    -0.00000000   -0.00000000    0.00000000

     Total force =     0.000000     Total SCF correction =     0.000000


     Computing stress (Cartesian axis) and pressure

          total   stress  (Ry/bohr**3)                   (kbar)     P=     -109.09
  -0.00107952  -0.00000000  -0.00000000         -158.80       -0.00       -0.00
  -0.00000000  -0.00107952   0.00000000           -0.00     -158.80        0.00
  -0.00000000   0.00000000  -0.00006562           -0.00        0.00       -9.65


     Writing output data file ./work/LiC560.save/
 
     init_run     :      0.11s CPU      0.13s WALL (       1 calls)
     electrons    :      1.60s CPU      1.70s WALL (       1 calls)
     forces       :      0.01s CPU      0.01s WALL (       1 calls)
     stress       :      0.03s CPU      0.03s WALL (       1 calls)

     Called by init_run:
     wfcinit      :      0.07s CPU      0.08s WALL (       1 calls)
     potinit      :      0.03s CPU      0.03s WALL (       1 calls)
     hinit0       :      0.01s CPU      0.01s WALL (       1 calls)

     Called by electrons:
     c_bands      :      1.43s CPU      1.51s WALL (       6 calls)
     sum_band     :      0.15s CPU      0.15s WALL (       6 calls)
     v_of_rho     :      0.01s CPU      0.02s WALL (       6 calls)
     mix_rho      :      0.00s CPU      0.00s WALL (       6 calls)

     Called by c_bands:
     init_us_2    :      0.01s CPU      0.01s WALL (     405 calls)
     cegterg      :      1.41s CPU      1.48s WALL (     162 calls)

     Called by *egterg:
     cdiaghg      :      0.12s CPU      0.12s WALL (    1215 calls)
     h_psi        :      1.25s CPU      1.31s WALL (    1269 calls)
     g_psi        :      0.00s CPU      0.00s WALL (    1080 calls)

     Called by h_psi:
     h_psi:calbec :      0.04s CPU      0.04s WALL (    1269 calls)
     vloc_psi     :      1.18s CPU      1.24s WALL (    1269 calls)
     add_vuspsi   :      0.01s CPU      0.01s WALL (    1269 calls)

     General routines
     calbec       :      0.05s CPU      0.05s WALL (    1404 calls)
     fft          :      0.02s CPU      0.02s WALL (      68 calls)
     ffts         :      0.00s CPU      0.00s WALL (       6 calls)
     fftw         :      1.26s CPU      1.32s WALL (   13068 calls)
 
     Parallel routines
     fft_scatt_xy :      0.06s CPU      0.07s WALL (   13142 calls)
     fft_scatt_yz :      0.57s CPU      0.59s WALL (   13142 calls)
 
     PWSCF        :      1.80s CPU      2.20s WALL

 
   This run was terminated on:  10:38:18  22Jan2024            

=------------------------------------------------------------------------------=
   JOB DONE.
=------------------------------------------------------------------------------=
