
     Program PWSCF v.6.7MaX starts on 22Jan2024 at 10:38:25 

     This program is part of the open-source Quantum ESPRESSO suite
     for quantum simulation of materials; please cite
         "P. Giannozzi et al., J. Phys.:Condens. Matter 21 395502 (2009);
         "P. Giannozzi et al., J. Phys.:Condens. Matter 29 465901 (2017);
          URL http://www.quantum-espresso.org", 
     in publications or presentations arising from this work. More details at
     http://www.quantum-espresso.org/quote

     Parallel version (MPI), running on    32 processors

     MPI processes distributed on     1 nodes
     R & G space division:  proc/nbgrp/npool/nimage =      32
     Waiting for input...
     Reading input from standard input
Warning: card &CELL ignored
Warning: card  CELL_DYNAMICS = 'BFGS', ignored
Warning: card  PRESS = 0.0, ignored
Warning: card  PRESS_CONV_THR = 1D-3, ignored
Warning: card  CELL_DOFREE='2DXY' ignored
Warning: card / ignored

     Current dimensions of program PWSCF are:
     Max number of different atomic species (ntypx) = 10
     Max number of k-points (npk) =  40000
     Max angular momentum in pseudopotentials (lmaxx) =  3
     Message from routine read_pp_mesh:
     mesh size missing, using the one in header

     Subspace diagonalization in iterative solution of the eigenvalue problem:
     a serial algorithm will be used

 
     Parallelization info
     --------------------
     sticks:   dense  smooth     PW     G-vecs:    dense   smooth      PW
     Min          14      14      4                 1800     1800     294
     Max          15      15      5                 1825     1825     319
     Sum         475     475    151                58185    58185    9779
 


     bravais-lattice index     =            4
     lattice parameter (alat)  =       5.9000  a.u.
     unit-cell volume          =    1220.9269 (a.u.)^3
     number of atoms/cell      =            2
     number of atomic types    =            1
     number of electrons       =         8.00
     number of Kohn-Sham states=            8
     kinetic-energy cutoff     =      50.0000  Ry
     charge density cutoff     =     200.0000  Ry
     scf convergence threshold =      1.0E-08
     mixing beta               =       0.7000
     number of iterations used =            8  plain     mixing
     Exchange-correlation= PBE
                           (   1   4   3   4   0   0   0)

     celldm(1)=   5.900000  celldm(2)=   0.000000  celldm(3)=   6.864407
     celldm(4)=   0.000000  celldm(5)=   0.000000  celldm(6)=   0.000000

     crystal axes: (cart. coord. in units of alat)
               a(1) = (   1.000000   0.000000   0.000000 )  
               a(2) = (  -0.500000   0.866025   0.000000 )  
               a(3) = (   0.000000   0.000000   6.864407 )  

     reciprocal axes: (cart. coord. in units 2 pi/alat)
               b(1) = (  1.000000  0.577350  0.000000 )  
               b(2) = (  0.000000  1.154701  0.000000 )  
               b(3) = (  0.000000  0.000000  0.145679 )  


     PseudoPot. # 1 for C  read from file:
     /home/yhkim/qe-6.7/pseudo/ONCV1/1.2/C_ONCV_PBE-1.2.upf
     MD5 check sum: 1a5f83a7b1f58d24996abe00ed223ac6
     Pseudo is Norm-conserving, Zval =  4.0
     Generated using ONCVPSP code by D. R. Hamann
     Using radial grid of  602 points,  4 beta functions with: 
                l(1) =   0
                l(2) =   0
                l(3) =   1
                l(4) =   1

     atomic species   valence    mass     pseudopotential
        C              4.00    12.01070     C ( 1.00)

     24 Sym. Ops., with inversion, found



   Cartesian axes

     site n.     atom                  positions (alat units)
         1           C   tau(   1) = (  -0.0000000   0.5773503   3.4322034  )
         2           C   tau(   2) = (   0.5000000   0.2886751   3.4322034  )

     number of k points=    27  Methfessel-Paxton smearing, width (Ry)=  0.0100
                       cart. coord. in units 2pi/alat
        k(    1) = (   0.0000000   0.0000000   0.0000000), wk =   0.0088889
        k(    2) = (   0.0000000   0.0769800   0.0000000), wk =   0.0533333
        k(    3) = (   0.0000000   0.1539601   0.0000000), wk =   0.0533333
        k(    4) = (   0.0000000   0.2309401   0.0000000), wk =   0.0533333
        k(    5) = (   0.0000000   0.3079201   0.0000000), wk =   0.0533333
        k(    6) = (   0.0000000   0.3849002   0.0000000), wk =   0.0533333
        k(    7) = (   0.0000000   0.4618802   0.0000000), wk =   0.0533333
        k(    8) = (   0.0000000   0.5388603   0.0000000), wk =   0.0533333
        k(    9) = (   0.0666667   0.1154701   0.0000000), wk =   0.0533333
        k(   10) = (   0.0666667   0.1924501   0.0000000), wk =   0.1066667
        k(   11) = (   0.0666667   0.2694301   0.0000000), wk =   0.1066667
        k(   12) = (   0.0666667   0.3464102   0.0000000), wk =   0.1066667
        k(   13) = (   0.0666667   0.4233902   0.0000000), wk =   0.1066667
        k(   14) = (   0.0666667   0.5003702   0.0000000), wk =   0.1066667
        k(   15) = (   0.0666667   0.5773503   0.0000000), wk =   0.0533333
        k(   16) = (   0.1333333   0.2309401   0.0000000), wk =   0.0533333
        k(   17) = (   0.1333333   0.3079201   0.0000000), wk =   0.1066667
        k(   18) = (   0.1333333   0.3849002   0.0000000), wk =   0.1066667
        k(   19) = (   0.1333333   0.4618802   0.0000000), wk =   0.1066667
        k(   20) = (   0.1333333   0.5388603   0.0000000), wk =   0.1066667
        k(   21) = (   0.2000000   0.3464102   0.0000000), wk =   0.0533333
        k(   22) = (   0.2000000   0.4233902   0.0000000), wk =   0.1066667
        k(   23) = (   0.2000000   0.5003702   0.0000000), wk =   0.1066667
        k(   24) = (   0.2000000   0.5773503   0.0000000), wk =   0.0533333
        k(   25) = (   0.2666667   0.4618802   0.0000000), wk =   0.0533333
        k(   26) = (   0.2666667   0.5388603   0.0000000), wk =   0.1066667
        k(   27) = (   0.3333333   0.5773503   0.0000000), wk =   0.0177778

     Dense  grid:    58185 G-vectors     FFT dimensions: (  27,  27, 192)

     Estimated max dynamical RAM per process >       2.34 MB

     Estimated total dynamical RAM >      74.87 MB
 ----2D----2D----2D----2D----2D----2D----2D----2D----2D----2D----2D----2D
  The code is running with the 2D cutoff
  Please refer to:
  Sohier, T., Calandra, M., & Mauri, F. (2017), 
  Density functional perturbation theory for gated two-dimensional heterostructu
 res:
  Theoretical developments and application to flexural phonons in graphene.
  Physical Review B, 96(7), 75448. https://doi.org/10.1103/PhysRevB.96.075448
 ----2D----2D----2D----2D----2D----2D----2D----2D----2D----2D----2D----2D

     Initial potential from superposition of free atoms

     starting charge    7.98607, renormalised to    8.00000

     negative rho (up, down):  1.522E-04 0.000E+00
     Starting wfcs are random

     total cpu time spent up to now is        0.1 secs

     Self-consistent Calculation

     iteration #  1     ecut=    50.00 Ry     beta= 0.70
     Davidson diagonalization with overlap
     ethr =  1.00E-02,  avg # of iterations = 12.9

     Threshold (ethr) on eigenvalues was too large:
     Diagonalizing with lowered threshold

     Davidson diagonalization with overlap
     ethr =  2.22E-04,  avg # of iterations =  7.9

     negative rho (up, down):  2.253E-05 0.000E+00

     total cpu time spent up to now is        1.0 secs

     total energy              =     -22.42095832 Ry
     estimated scf accuracy    <       0.01767999 Ry

     iteration #  2     ecut=    50.00 Ry     beta= 0.70
     Davidson diagonalization with overlap
     ethr =  2.21E-04,  avg # of iterations =  1.0

     negative rho (up, down):  1.756E-08 0.000E+00

     total cpu time spent up to now is        1.2 secs

     total energy              =     -22.42157223 Ry
     estimated scf accuracy    <       0.00136575 Ry

     iteration #  3     ecut=    50.00 Ry     beta= 0.70
     Davidson diagonalization with overlap
     c_bands:  1 eigenvalues not converged
     c_bands:  1 eigenvalues not converged
     c_bands:  1 eigenvalues not converged
     ethr =  1.71E-05,  avg # of iterations =  7.6

     total cpu time spent up to now is        1.4 secs

     total energy              =     -22.42170256 Ry
     estimated scf accuracy    <       0.00000531 Ry

     iteration #  4     ecut=    50.00 Ry     beta= 0.70
     Davidson diagonalization with overlap
     c_bands:  1 eigenvalues not converged
     c_bands:  1 eigenvalues not converged
     ethr =  6.64E-08,  avg # of iterations =  8.4

     total cpu time spent up to now is        1.7 secs

     total energy              =     -22.42172889 Ry
     estimated scf accuracy    <       0.00000020 Ry

     iteration #  5     ecut=    50.00 Ry     beta= 0.70
     Davidson diagonalization with overlap
     c_bands:  1 eigenvalues not converged
     ethr =  2.48E-09,  avg # of iterations =  3.4

     total cpu time spent up to now is        1.9 secs

     total energy              =     -22.42172894 Ry
     estimated scf accuracy    <       0.00000007 Ry

     iteration #  6     ecut=    50.00 Ry     beta= 0.70
     Davidson diagonalization with overlap
     c_bands:  1 eigenvalues not converged
     ethr =  8.65E-10,  avg # of iterations =  2.7

     total cpu time spent up to now is        2.1 secs

     End of self-consistent calculation

          k = 0.0000 0.0000 0.0000 (  7339 PWs)   bands (ev):

   -20.3123  -9.5680  -8.4390  -8.4390  -5.2741  -1.0354  -1.0343  -0.8212

          k = 0.0000 0.0770 0.0000 (  7359 PWs)   bands (ev):

   -20.2469  -9.5011  -8.9418  -8.5421  -4.8687  -1.0095  -0.8207  -0.7256

          k = 0.0000 0.1540 0.0000 (  7341 PWs)   bands (ev):

   -20.0515 -10.0017  -9.3006  -8.8089  -4.1659  -1.1086  -0.8356  -0.4489

          k = 0.0000 0.2309 0.0000 (  7315 PWs)   bands (ev):

   -19.7294 -11.2104  -9.1562  -8.9727  -3.7167  -1.6777  -0.3026   0.0062

          k = 0.0000 0.3079 0.0000 (  7290 PWs)   bands (ev):

   -19.2874 -12.4269  -9.5032  -8.5306  -3.6118  -2.3856   0.5516   0.6746

          k = 0.0000 0.3849 0.0000 (  7268 PWs)   bands (ev):

   -18.7406 -13.5828  -9.7994  -7.9994  -3.6779  -3.1629   1.4028   1.6612

          k = 0.0000 0.4619 0.0000 (  7276 PWs)   bands (ev):

   -18.1304 -14.6109 -10.0120  -7.4364  -3.9149  -3.7752   2.3456   2.6289

          k = 0.0000 0.5389 0.0000 (  7262 PWs)   bands (ev):

   -17.6078 -15.3449 -10.1219  -6.9982  -4.4541  -3.8356   3.0665   3.6248

          k = 0.0667 0.1155 0.0000 (  7351 PWs)   bands (ev):

   -20.1165  -9.6785  -9.3671  -8.7491  -4.3226  -0.9879  -0.9692  -0.5418

          k = 0.0667 0.1925 0.0000 (  7337 PWs)   bands (ev):

   -19.8576 -10.7398  -9.1031  -9.1021  -3.7139  -1.4557  -0.7564  -0.1822

          k = 0.0667 0.2694 0.0000 (  7286 PWs)   bands (ev):

   -19.4749 -11.8994  -9.4921  -8.7163  -3.3920  -2.0881  -0.1665   0.3527

          k = 0.0667 0.3464 0.0000 (  7271 PWs)   bands (ev):

   -18.9786 -13.0544  -9.8460  -8.2265  -3.3539  -2.8270   0.7425   1.0568

          k = 0.0667 0.4234 0.0000 (  7270 PWs)   bands (ev):

   -18.3922 -14.1347 -10.1214  -7.6697  -3.5944  -3.4281   1.7267   1.9318

          k = 0.0667 0.5004 0.0000 (  7275 PWs)   bands (ev):

   -17.7906 -15.0406 -10.2948  -7.1363  -4.2681  -3.5031   2.4816   3.0104

          k = 0.0667 0.5774 0.0000 (  7286 PWs)   bands (ev):

   -17.4645 -15.4691 -10.3544  -6.8771  -4.5771  -3.5321   2.7778   4.1182

          k = 0.1333 0.2309 0.0000 (  7291 PWs)   bands (ev):

   -19.5379 -11.6678  -9.5660  -8.7793  -3.1440  -1.9832  -0.6386   0.2603

          k = 0.1333 0.3079 0.0000 (  7274 PWs)   bands (ev):

   -19.0991 -12.6840 -10.0415  -8.3428  -2.7648  -2.6385  -0.1848   0.8774

          k = 0.1333 0.3849 0.0000 (  7289 PWs)   bands (ev):

   -18.5557 -13.7109 -10.4364  -7.8166  -3.3656  -2.6672   0.6219   1.6656

          k = 0.1333 0.4619 0.0000 (  7291 PWs)   bands (ev):

   -17.9454 -14.6659 -10.7106  -7.2520  -4.0809  -2.6942   1.4909   2.6276

          k = 0.1333 0.5389 0.0000 (  7278 PWs)   bands (ev):

   -17.4112 -15.3785 -10.8500  -6.7992  -4.6156  -2.7283   2.0686   3.7665

          k = 0.2000 0.3464 0.0000 (  7295 PWs)   bands (ev):

   -18.6112 -13.5249 -10.6069  -7.8668  -3.2798  -2.1343  -0.0143   1.5777

          k = 0.2000 0.4234 0.0000 (  7291 PWs)   bands (ev):

   -18.0313 -14.3849 -11.0547  -7.3165  -3.9627  -1.7996   0.5271   2.4464

          k = 0.2000 0.5004 0.0000 (  7280 PWs)   bands (ev):

   -17.4198 -15.1794 -11.3315  -6.7663  -4.5991  -1.7108   1.1838   3.4812

          k = 0.2000 0.5774 0.0000 (  7280 PWs)   bands (ev):

   -17.0620 -15.6014 -11.4239  -6.4714  -4.9237  -1.6996   1.4829   4.1340

          k = 0.2667 0.4619 0.0000 (  7291 PWs)   bands (ev):

   -17.4307 -15.0745 -11.5349  -6.7585  -4.5846  -1.0545   0.5803   3.3860

          k = 0.2667 0.5389 0.0000 (  7264 PWs)   bands (ev):

   -16.8455 -15.7037 -11.7891  -6.2354  -5.1359  -0.6973   0.7736   4.0093

          k = 0.3333 0.5774 0.0000 (  7284 PWs)   bands (ev):

   -16.2619 -16.2619 -11.9580  -5.6858  -5.6858   0.1615   0.1615   4.0173

     the Fermi energy is    -5.6857 ev

!    total energy              =     -22.42172895 Ry
     estimated scf accuracy    <          2.6E-10 Ry
     smearing contrib. (-TS)   =      -0.00005013 Ry
     internal energy E=F+TS    =     -22.42167882 Ry

     The total energy is F=E-TS. E is the sum of the following terms:
     one-electron contribution =    -240.84683251 Ry
     hartree contribution      =     120.76130320 Ry
     xc contribution           =      -6.17707665 Ry
     ewald contribution        =     103.84092714 Ry

     convergence has been achieved in   6 iterations

     Forces acting on atoms (cartesian axes, Ry/au):

     atom    1 type  1   force =     0.00000000    0.00000000    0.00000000
     atom    2 type  1   force =     0.00000000    0.00000000    0.00000000

     Total force =     0.000000     Total SCF correction =     0.000000


     Computing stress (Cartesian axis) and pressure

          total   stress  (Ry/bohr**3)                   (kbar)     P=     -104.08
  -0.00103143  -0.00000000   0.00000000         -151.73       -0.00        0.00
  -0.00000000  -0.00103143  -0.00000000           -0.00     -151.73       -0.00
   0.00000000   0.00000000  -0.00005966            0.00        0.00       -8.78


     Writing output data file ./work/LiC590.save/
 
     init_run     :      0.11s CPU      0.13s WALL (       1 calls)
     electrons    :      1.84s CPU      1.97s WALL (       1 calls)
     forces       :      0.01s CPU      0.01s WALL (       1 calls)
     stress       :      0.03s CPU      0.03s WALL (       1 calls)

     Called by init_run:
     wfcinit      :      0.07s CPU      0.08s WALL (       1 calls)
     potinit      :      0.02s CPU      0.03s WALL (       1 calls)
     hinit0       :      0.01s CPU      0.01s WALL (       1 calls)

     Called by electrons:
     c_bands      :      1.63s CPU      1.73s WALL (       7 calls)
     sum_band     :      0.19s CPU      0.19s WALL (       7 calls)
     v_of_rho     :      0.02s CPU      0.02s WALL (       7 calls)
     mix_rho      :      0.00s CPU      0.00s WALL (       7 calls)

     Called by c_bands:
     init_us_2    :      0.02s CPU      0.02s WALL (     459 calls)
     cegterg      :      1.60s CPU      1.69s WALL (     189 calls)

     Called by *egterg:
     cdiaghg      :      0.13s CPU      0.13s WALL (    1345 calls)
     h_psi        :      1.41s CPU      1.50s WALL (    1399 calls)
     g_psi        :      0.00s CPU      0.00s WALL (    1183 calls)

     Called by h_psi:
     h_psi:calbec :      0.05s CPU      0.06s WALL (    1399 calls)
     vloc_psi     :      1.34s CPU      1.41s WALL (    1399 calls)
     add_vuspsi   :      0.01s CPU      0.01s WALL (    1399 calls)

     General routines
     calbec       :      0.05s CPU      0.06s WALL (    1534 calls)
     fft          :      0.02s CPU      0.02s WALL (      78 calls)
     ffts         :      0.00s CPU      0.00s WALL (       7 calls)
     fftw         :      1.43s CPU      1.51s WALL (   14528 calls)
 
     Parallel routines
     fft_scatt_xy :      0.08s CPU      0.09s WALL (   14613 calls)
     fft_scatt_yz :      0.66s CPU      0.70s WALL (   14613 calls)
 
     PWSCF        :      2.04s CPU      2.63s WALL

 
   This run was terminated on:  10:38:28  22Jan2024            

=------------------------------------------------------------------------------=
   JOB DONE.
=------------------------------------------------------------------------------=
