
     Program PWSCF v.6.7MaX starts on 22Jan2024 at 10:38:13 

     This program is part of the open-source Quantum ESPRESSO suite
     for quantum simulation of materials; please cite
         "P. Giannozzi et al., J. Phys.:Condens. Matter 21 395502 (2009);
         "P. Giannozzi et al., J. Phys.:Condens. Matter 29 465901 (2017);
          URL http://www.quantum-espresso.org", 
     in publications or presentations arising from this work. More details at
     http://www.quantum-espresso.org/quote

     Parallel version (MPI), running on    32 processors

     MPI processes distributed on     1 nodes
     R & G space division:  proc/nbgrp/npool/nimage =      32
     Waiting for input...
     Reading input from standard input
Warning: card &CELL ignored
Warning: card  CELL_DYNAMICS = 'BFGS', ignored
Warning: card  PRESS = 0.0, ignored
Warning: card  PRESS_CONV_THR = 1D-3, ignored
Warning: card  CELL_DOFREE='2DXY' ignored
Warning: card / ignored

     Current dimensions of program PWSCF are:
     Max number of different atomic species (ntypx) = 10
     Max number of k-points (npk) =  40000
     Max angular momentum in pseudopotentials (lmaxx) =  3
     Message from routine read_pp_mesh:
     mesh size missing, using the one in header

     Subspace diagonalization in iterative solution of the eigenvalue problem:
     a serial algorithm will be used

 
     Parallelization info
     --------------------
     sticks:   dense  smooth     PW     G-vecs:    dense   smooth      PW
     Min          13      13      3                 1581     1581     241
     Max          14      14      4                 1610     1610     282
     Sum         421     421    121                50847    50847    8573
 


     bravais-lattice index     =            4
     lattice parameter (alat)  =       5.5000  a.u.
     unit-cell volume          =    1060.9894 (a.u.)^3
     number of atoms/cell      =            2
     number of atomic types    =            1
     number of electrons       =         8.00
     number of Kohn-Sham states=            8
     kinetic-energy cutoff     =      50.0000  Ry
     charge density cutoff     =     200.0000  Ry
     scf convergence threshold =      1.0E-08
     mixing beta               =       0.7000
     number of iterations used =            8  plain     mixing
     Exchange-correlation= PBE
                           (   1   4   3   4   0   0   0)

     celldm(1)=   5.500000  celldm(2)=   0.000000  celldm(3)=   7.363636
     celldm(4)=   0.000000  celldm(5)=   0.000000  celldm(6)=   0.000000

     crystal axes: (cart. coord. in units of alat)
               a(1) = (   1.000000   0.000000   0.000000 )  
               a(2) = (  -0.500000   0.866025   0.000000 )  
               a(3) = (   0.000000   0.000000   7.363636 )  

     reciprocal axes: (cart. coord. in units 2 pi/alat)
               b(1) = (  1.000000  0.577350  0.000000 )  
               b(2) = (  0.000000  1.154701  0.000000 )  
               b(3) = (  0.000000  0.000000  0.135802 )  


     PseudoPot. # 1 for C  read from file:
     /home/yhkim/qe-6.7/pseudo/ONCV1/1.2/C_ONCV_PBE-1.2.upf
     MD5 check sum: 1a5f83a7b1f58d24996abe00ed223ac6
     Pseudo is Norm-conserving, Zval =  4.0
     Generated using ONCVPSP code by D. R. Hamann
     Using radial grid of  602 points,  4 beta functions with: 
                l(1) =   0
                l(2) =   0
                l(3) =   1
                l(4) =   1

     atomic species   valence    mass     pseudopotential
        C              4.00    12.01070     C ( 1.00)

     24 Sym. Ops., with inversion, found



   Cartesian axes

     site n.     atom                  positions (alat units)
         1           C   tau(   1) = (  -0.0000000   0.5773503   3.6818182  )
         2           C   tau(   2) = (   0.5000000   0.2886751   3.6818182  )

     number of k points=    27  Methfessel-Paxton smearing, width (Ry)=  0.0100
                       cart. coord. in units 2pi/alat
        k(    1) = (   0.0000000   0.0000000   0.0000000), wk =   0.0088889
        k(    2) = (   0.0000000   0.0769800   0.0000000), wk =   0.0533333
        k(    3) = (   0.0000000   0.1539601   0.0000000), wk =   0.0533333
        k(    4) = (   0.0000000   0.2309401   0.0000000), wk =   0.0533333
        k(    5) = (   0.0000000   0.3079201   0.0000000), wk =   0.0533333
        k(    6) = (   0.0000000   0.3849002   0.0000000), wk =   0.0533333
        k(    7) = (   0.0000000   0.4618802   0.0000000), wk =   0.0533333
        k(    8) = (   0.0000000   0.5388603   0.0000000), wk =   0.0533333
        k(    9) = (   0.0666667   0.1154701   0.0000000), wk =   0.0533333
        k(   10) = (   0.0666667   0.1924501   0.0000000), wk =   0.1066667
        k(   11) = (   0.0666667   0.2694301   0.0000000), wk =   0.1066667
        k(   12) = (   0.0666667   0.3464102   0.0000000), wk =   0.1066667
        k(   13) = (   0.0666667   0.4233902   0.0000000), wk =   0.1066667
        k(   14) = (   0.0666667   0.5003702   0.0000000), wk =   0.1066667
        k(   15) = (   0.0666667   0.5773503   0.0000000), wk =   0.0533333
        k(   16) = (   0.1333333   0.2309401   0.0000000), wk =   0.0533333
        k(   17) = (   0.1333333   0.3079201   0.0000000), wk =   0.1066667
        k(   18) = (   0.1333333   0.3849002   0.0000000), wk =   0.1066667
        k(   19) = (   0.1333333   0.4618802   0.0000000), wk =   0.1066667
        k(   20) = (   0.1333333   0.5388603   0.0000000), wk =   0.1066667
        k(   21) = (   0.2000000   0.3464102   0.0000000), wk =   0.0533333
        k(   22) = (   0.2000000   0.4233902   0.0000000), wk =   0.1066667
        k(   23) = (   0.2000000   0.5003702   0.0000000), wk =   0.1066667
        k(   24) = (   0.2000000   0.5773503   0.0000000), wk =   0.0533333
        k(   25) = (   0.2666667   0.4618802   0.0000000), wk =   0.0533333
        k(   26) = (   0.2666667   0.5388603   0.0000000), wk =   0.1066667
        k(   27) = (   0.3333333   0.5773503   0.0000000), wk =   0.0177778

     Dense  grid:    50847 G-vectors     FFT dimensions: (  25,  25, 192)

     Estimated max dynamical RAM per process >       2.07 MB

     Estimated total dynamical RAM >      66.40 MB
 ----2D----2D----2D----2D----2D----2D----2D----2D----2D----2D----2D----2D
  The code is running with the 2D cutoff
  Please refer to:
  Sohier, T., Calandra, M., & Mauri, F. (2017), 
  Density functional perturbation theory for gated two-dimensional heterostructu
 res:
  Theoretical developments and application to flexural phonons in graphene.
  Physical Review B, 96(7), 75448. https://doi.org/10.1103/PhysRevB.96.075448
 ----2D----2D----2D----2D----2D----2D----2D----2D----2D----2D----2D----2D

     Initial potential from superposition of free atoms

     starting charge    7.98607, renormalised to    8.00000

     negative rho (up, down):  1.383E-04 0.000E+00
     Starting wfcs are random

     total cpu time spent up to now is        0.2 secs

     Self-consistent Calculation

     iteration #  1     ecut=    50.00 Ry     beta= 0.70
     Davidson diagonalization with overlap
     ethr =  1.00E-02,  avg # of iterations = 11.5

     Threshold (ethr) on eigenvalues was too large:
     Diagonalizing with lowered threshold

     Davidson diagonalization with overlap
     ethr =  3.80E-04,  avg # of iterations =  6.7

     negative rho (up, down):  2.109E-05 0.000E+00

     total cpu time spent up to now is        1.0 secs

     total energy              =     -22.57826530 Ry
     estimated scf accuracy    <       0.03534414 Ry

     iteration #  2     ecut=    50.00 Ry     beta= 0.70
     Davidson diagonalization with overlap
     ethr =  4.42E-04,  avg # of iterations =  1.7

     negative rho (up, down):  1.119E-06 0.000E+00

     total cpu time spent up to now is        1.1 secs

     total energy              =     -22.58113215 Ry
     estimated scf accuracy    <       0.00154114 Ry

     iteration #  3     ecut=    50.00 Ry     beta= 0.70
     Davidson diagonalization with overlap
     c_bands:  1 eigenvalues not converged
     ethr =  1.93E-05,  avg # of iterations =  7.6

     total cpu time spent up to now is        1.3 secs

     total energy              =     -22.58131048 Ry
     estimated scf accuracy    <       0.00005860 Ry

     iteration #  4     ecut=    50.00 Ry     beta= 0.70
     Davidson diagonalization with overlap
     c_bands:  1 eigenvalues not converged
     c_bands:  2 eigenvalues not converged
     ethr =  7.32E-07,  avg # of iterations =  7.6

     total cpu time spent up to now is        1.6 secs

     total energy              =     -22.58133702 Ry
     estimated scf accuracy    <       0.00000013 Ry

     iteration #  5     ecut=    50.00 Ry     beta= 0.70
     Davidson diagonalization with overlap
     ethr =  1.62E-09,  avg # of iterations =  4.4

     total cpu time spent up to now is        1.8 secs

     End of self-consistent calculation

          k = 0.0000 0.0000 0.0000 (  6355 PWs)   bands (ev):

   -21.2964 -10.1730  -8.3019  -8.3019  -2.1517  -0.8689  -0.1930   0.1979

          k = 0.0000 0.0770 0.0000 (  6341 PWs)   bands (ev):

   -21.2202 -10.0911  -8.7170  -8.4304  -1.8747  -0.7665  -0.0906   0.2518

          k = 0.0000 0.1540 0.0000 (  6317 PWs)   bands (ev):

   -20.9926  -9.8468  -9.7353  -8.7649  -1.4684  -0.4586   0.2167   0.5024

          k = 0.0000 0.2309 0.0000 (  6299 PWs)   bands (ev):

   -20.6164 -11.0175  -9.4470  -9.1964  -1.4459  -0.2650   0.0553   0.7282

          k = 0.0000 0.3079 0.0000 (  6327 PWs)   bands (ev):

   -20.0981 -12.3724  -9.6255  -8.9052  -1.6551  -1.2075   0.7720   1.4394

          k = 0.0000 0.3849 0.0000 (  6305 PWs)   bands (ev):

   -19.4511 -13.6931  -9.9851  -8.2487  -2.2312  -1.8925   1.6882   2.3461

          k = 0.0000 0.4619 0.0000 (  6336 PWs)   bands (ev):

   -18.7134 -14.8996 -10.2469  -7.5445  -3.2149  -2.0779   2.7957   3.4358

          k = 0.0000 0.5389 0.0000 (  6350 PWs)   bands (ev):

   -18.0429 -15.8097 -10.3816  -6.9868  -3.9233  -2.1775   4.0596   4.6634

          k = 0.0667 0.1155 0.0000 (  6321 PWs)   bands (ev):

   -21.0683  -9.9279  -9.4014  -8.6912  -1.4872  -0.5619   0.1146   0.3132

          k = 0.0667 0.1925 0.0000 (  6297 PWs)   bands (ev):

   -20.7663 -10.4889  -9.6052  -9.1320  -1.1611  -0.1516   0.0365   0.5232

          k = 0.0667 0.2694 0.0000 (  6314 PWs)   bands (ev):

   -20.3187 -11.7565  -9.6132  -9.1340  -1.2176  -0.8094   0.4645   1.1335

          k = 0.0667 0.3464 0.0000 (  6335 PWs)   bands (ev):

   -19.7345 -13.0631 -10.0450  -8.5313  -1.7840  -1.4327   1.2815   1.9409

          k = 0.0667 0.4234 0.0000 (  6342 PWs)   bands (ev):

   -19.0353 -14.3142 -10.3776  -7.8392  -2.7891  -1.6409   2.2937   2.9362

          k = 0.0667 0.5004 0.0000 (  6355 PWs)   bands (ev):

   -18.2927 -15.4014 -10.5855  -7.1670  -3.6690  -1.7821   3.4816   4.0911

          k = 0.0667 0.5774 0.0000 (  6352 PWs)   bands (ev):

   -17.8576 -15.9533 -10.6562  -6.8330  -4.0752  -1.8311   4.5923   4.9168

          k = 0.1333 0.2309 0.0000 (  6304 PWs)   bands (ev):

   -20.3926 -11.4664  -9.7155  -9.2103  -0.6646  -0.6508   0.3571   0.7784

          k = 0.1333 0.3079 0.0000 (  6322 PWs)   bands (ev):

   -19.8778 -12.5850 -10.3028  -8.6750  -1.5261  -0.5086   1.0754   1.4975

          k = 0.1333 0.3849 0.0000 (  6358 PWs)   bands (ev):

   -19.2353 -13.7572 -10.7788  -8.0251  -2.4718  -0.6466   1.9904   2.6268

          k = 0.1333 0.4619 0.0000 (  6359 PWs)   bands (ev):

   -18.5006 -14.8805 -11.1030  -7.3195  -3.3992  -0.7976   3.0806   3.8422

          k = 0.1333 0.5389 0.0000 (  6355 PWs)   bands (ev):

   -17.8236 -15.7619 -11.2659  -6.7436  -4.0942  -0.8842   4.1849   4.7548

          k = 0.2000 0.3464 0.0000 (  6334 PWs)   bands (ev):

   -19.3029 -13.4913 -11.0146  -8.0876  -2.3521   0.2220   1.6527   1.8888

          k = 0.2000 0.4234 0.0000 (  6329 PWs)   bands (ev):

   -18.6139 -14.4605 -11.5666  -7.4046  -3.2237   0.4114   2.5099   2.9039

          k = 0.2000 0.5004 0.0000 (  6340 PWs)   bands (ev):

   -17.8715 -15.4002 -11.8993  -6.7138  -4.0361   0.3704   3.4654   4.1485

          k = 0.2000 0.5774 0.0000 (  6338 PWs)   bands (ev):

   -17.4106 -15.9325 -12.0088  -6.3373  -4.4540   0.3434   3.8873   4.8355

          k = 0.2667 0.4619 0.0000 (  6324 PWs)   bands (ev):

   -17.8987 -15.2038 -12.1885  -6.7091  -4.0000   1.2928   2.6591   3.9968

          k = 0.2667 0.5389 0.0000 (  6352 PWs)   bands (ev):

   -17.1904 -15.9261 -12.5184  -6.0543  -4.6947   1.5836   3.1328   4.6278

          k = 0.3333 0.5774 0.0000 (  6354 PWs)   bands (ev):

   -16.5215 -16.5215 -12.7536  -5.3727  -5.3727   2.5536   2.5536   4.5895

     the Fermi energy is    -5.3727 ev

!    total energy              =     -22.58133781 Ry
     estimated scf accuracy    <          3.6E-09 Ry
     smearing contrib. (-TS)   =      -0.00005015 Ry
     internal energy E=F+TS    =     -22.58128766 Ry

     The total energy is F=E-TS. E is the sum of the following terms:
     one-electron contribution =    -277.02567104 Ry
     hartree contribution      =     138.90019064 Ry
     xc contribution           =      -6.38555590 Ry
     ewald contribution        =     121.92974863 Ry

     convergence has been achieved in   5 iterations

     Forces acting on atoms (cartesian axes, Ry/au):

     atom    1 type  1   force =     0.00000000    0.00000000    0.00000000
     atom    2 type  1   force =     0.00000000    0.00000000    0.00000000

     Total force =     0.000000     Total SCF correction =     0.000000


     Computing stress (Cartesian axis) and pressure

          total   stress  (Ry/bohr**3)                   (kbar)     P=     -108.62
  -0.00107359  -0.00000000  -0.00000000         -157.93       -0.00       -0.00
  -0.00000000  -0.00107359   0.00000000           -0.00     -157.93        0.00
   0.00000000   0.00000000  -0.00006793            0.00        0.00       -9.99


     Writing output data file ./work/LiC550.save/
 
     init_run     :      0.12s CPU      0.13s WALL (       1 calls)
     electrons    :      1.58s CPU      1.69s WALL (       1 calls)
     forces       :      0.01s CPU      0.01s WALL (       1 calls)
     stress       :      0.03s CPU      0.03s WALL (       1 calls)

     Called by init_run:
     wfcinit      :      0.07s CPU      0.08s WALL (       1 calls)
     potinit      :      0.03s CPU      0.03s WALL (       1 calls)
     hinit0       :      0.00s CPU      0.01s WALL (       1 calls)

     Called by electrons:
     c_bands      :      1.42s CPU      1.50s WALL (       6 calls)
     sum_band     :      0.14s CPU      0.15s WALL (       6 calls)
     v_of_rho     :      0.01s CPU      0.02s WALL (       6 calls)
     mix_rho      :      0.00s CPU      0.00s WALL (       6 calls)

     Called by c_bands:
     init_us_2    :      0.01s CPU      0.01s WALL (     405 calls)
     cegterg      :      1.39s CPU      1.47s WALL (     162 calls)

     Called by *egterg:
     cdiaghg      :      0.11s CPU      0.12s WALL (    1204 calls)
     h_psi        :      1.24s CPU      1.31s WALL (    1258 calls)
     g_psi        :      0.00s CPU      0.00s WALL (    1069 calls)

     Called by h_psi:
     h_psi:calbec :      0.04s CPU      0.05s WALL (    1258 calls)
     vloc_psi     :      1.17s CPU      1.23s WALL (    1258 calls)
     add_vuspsi   :      0.01s CPU      0.01s WALL (    1258 calls)

     General routines
     calbec       :      0.05s CPU      0.05s WALL (    1393 calls)
     fft          :      0.01s CPU      0.02s WALL (      68 calls)
     ffts         :      0.00s CPU      0.00s WALL (       6 calls)
     fftw         :      1.25s CPU      1.31s WALL (   13032 calls)
 
     Parallel routines
     fft_scatt_xy :      0.07s CPU      0.07s WALL (   13106 calls)
     fft_scatt_yz :      0.55s CPU      0.58s WALL (   13106 calls)
 
     PWSCF        :      1.79s CPU      2.21s WALL

 
   This run was terminated on:  10:38:15  22Jan2024            

=------------------------------------------------------------------------------=
   JOB DONE.
=------------------------------------------------------------------------------=
