
     Program PWSCF v.6.7MaX starts on 22Jan2024 at 10:38:22 

     This program is part of the open-source Quantum ESPRESSO suite
     for quantum simulation of materials; please cite
         "P. Giannozzi et al., J. Phys.:Condens. Matter 21 395502 (2009);
         "P. Giannozzi et al., J. Phys.:Condens. Matter 29 465901 (2017);
          URL http://www.quantum-espresso.org", 
     in publications or presentations arising from this work. More details at
     http://www.quantum-espresso.org/quote

     Parallel version (MPI), running on    32 processors

     MPI processes distributed on     1 nodes
     R & G space division:  proc/nbgrp/npool/nimage =      32
     Waiting for input...
     Reading input from standard input
Warning: card &CELL ignored
Warning: card  CELL_DYNAMICS = 'BFGS', ignored
Warning: card  PRESS = 0.0, ignored
Warning: card  PRESS_CONV_THR = 1D-3, ignored
Warning: card  CELL_DOFREE='2DXY' ignored
Warning: card / ignored

     Current dimensions of program PWSCF are:
     Max number of different atomic species (ntypx) = 10
     Max number of k-points (npk) =  40000
     Max angular momentum in pseudopotentials (lmaxx) =  3
     Message from routine read_pp_mesh:
     mesh size missing, using the one in header

     Subspace diagonalization in iterative solution of the eigenvalue problem:
     a serial algorithm will be used

 
     Parallelization info
     --------------------
     sticks:   dense  smooth     PW     G-vecs:    dense   smooth      PW
     Min          14      14      4                 1749     1749     288
     Max          15      15      6                 1765     1765     309
     Sum         463     463    139                56217    56217    9359
 


     bravais-lattice index     =            4
     lattice parameter (alat)  =       5.8000  a.u.
     unit-cell volume          =    1179.8903 (a.u.)^3
     number of atoms/cell      =            2
     number of atomic types    =            1
     number of electrons       =         8.00
     number of Kohn-Sham states=            8
     kinetic-energy cutoff     =      50.0000  Ry
     charge density cutoff     =     200.0000  Ry
     scf convergence threshold =      1.0E-08
     mixing beta               =       0.7000
     number of iterations used =            8  plain     mixing
     Exchange-correlation= PBE
                           (   1   4   3   4   0   0   0)

     celldm(1)=   5.800000  celldm(2)=   0.000000  celldm(3)=   6.982759
     celldm(4)=   0.000000  celldm(5)=   0.000000  celldm(6)=   0.000000

     crystal axes: (cart. coord. in units of alat)
               a(1) = (   1.000000   0.000000   0.000000 )  
               a(2) = (  -0.500000   0.866025   0.000000 )  
               a(3) = (   0.000000   0.000000   6.982759 )  

     reciprocal axes: (cart. coord. in units 2 pi/alat)
               b(1) = (  1.000000  0.577350  0.000000 )  
               b(2) = (  0.000000  1.154701  0.000000 )  
               b(3) = (  0.000000  0.000000  0.143210 )  


     PseudoPot. # 1 for C  read from file:
     /home/yhkim/qe-6.7/pseudo/ONCV1/1.2/C_ONCV_PBE-1.2.upf
     MD5 check sum: 1a5f83a7b1f58d24996abe00ed223ac6
     Pseudo is Norm-conserving, Zval =  4.0
     Generated using ONCVPSP code by D. R. Hamann
     Using radial grid of  602 points,  4 beta functions with: 
                l(1) =   0
                l(2) =   0
                l(3) =   1
                l(4) =   1

     atomic species   valence    mass     pseudopotential
        C              4.00    12.01070     C ( 1.00)

     24 Sym. Ops., with inversion, found



   Cartesian axes

     site n.     atom                  positions (alat units)
         1           C   tau(   1) = (  -0.0000000   0.5773503   3.4913793  )
         2           C   tau(   2) = (   0.5000000   0.2886751   3.4913793  )

     number of k points=    27  Methfessel-Paxton smearing, width (Ry)=  0.0100
                       cart. coord. in units 2pi/alat
        k(    1) = (   0.0000000   0.0000000   0.0000000), wk =   0.0088889
        k(    2) = (   0.0000000   0.0769800   0.0000000), wk =   0.0533333
        k(    3) = (   0.0000000   0.1539601   0.0000000), wk =   0.0533333
        k(    4) = (   0.0000000   0.2309401   0.0000000), wk =   0.0533333
        k(    5) = (   0.0000000   0.3079201   0.0000000), wk =   0.0533333
        k(    6) = (   0.0000000   0.3849002   0.0000000), wk =   0.0533333
        k(    7) = (   0.0000000   0.4618802   0.0000000), wk =   0.0533333
        k(    8) = (   0.0000000   0.5388603   0.0000000), wk =   0.0533333
        k(    9) = (   0.0666667   0.1154701   0.0000000), wk =   0.0533333
        k(   10) = (   0.0666667   0.1924501   0.0000000), wk =   0.1066667
        k(   11) = (   0.0666667   0.2694301   0.0000000), wk =   0.1066667
        k(   12) = (   0.0666667   0.3464102   0.0000000), wk =   0.1066667
        k(   13) = (   0.0666667   0.4233902   0.0000000), wk =   0.1066667
        k(   14) = (   0.0666667   0.5003702   0.0000000), wk =   0.1066667
        k(   15) = (   0.0666667   0.5773503   0.0000000), wk =   0.0533333
        k(   16) = (   0.1333333   0.2309401   0.0000000), wk =   0.0533333
        k(   17) = (   0.1333333   0.3079201   0.0000000), wk =   0.1066667
        k(   18) = (   0.1333333   0.3849002   0.0000000), wk =   0.1066667
        k(   19) = (   0.1333333   0.4618802   0.0000000), wk =   0.1066667
        k(   20) = (   0.1333333   0.5388603   0.0000000), wk =   0.1066667
        k(   21) = (   0.2000000   0.3464102   0.0000000), wk =   0.0533333
        k(   22) = (   0.2000000   0.4233902   0.0000000), wk =   0.1066667
        k(   23) = (   0.2000000   0.5003702   0.0000000), wk =   0.1066667
        k(   24) = (   0.2000000   0.5773503   0.0000000), wk =   0.0533333
        k(   25) = (   0.2666667   0.4618802   0.0000000), wk =   0.0533333
        k(   26) = (   0.2666667   0.5388603   0.0000000), wk =   0.1066667
        k(   27) = (   0.3333333   0.5773503   0.0000000), wk =   0.0177778

     Dense  grid:    56217 G-vectors     FFT dimensions: (  27,  27, 192)

     Estimated max dynamical RAM per process >       2.28 MB

     Estimated total dynamical RAM >      73.02 MB
 ----2D----2D----2D----2D----2D----2D----2D----2D----2D----2D----2D----2D
  The code is running with the 2D cutoff
  Please refer to:
  Sohier, T., Calandra, M., & Mauri, F. (2017), 
  Density functional perturbation theory for gated two-dimensional heterostructu
 res:
  Theoretical developments and application to flexural phonons in graphene.
  Physical Review B, 96(7), 75448. https://doi.org/10.1103/PhysRevB.96.075448
 ----2D----2D----2D----2D----2D----2D----2D----2D----2D----2D----2D----2D

     Initial potential from superposition of free atoms

     starting charge    7.98607, renormalised to    8.00000

     negative rho (up, down):  1.477E-04 0.000E+00
     Starting wfcs are random

     total cpu time spent up to now is        0.2 secs

     Self-consistent Calculation

     iteration #  1     ecut=    50.00 Ry     beta= 0.70
     Davidson diagonalization with overlap
     ethr =  1.00E-02,  avg # of iterations = 11.9

     Threshold (ethr) on eigenvalues was too large:
     Diagonalizing with lowered threshold

     Davidson diagonalization with overlap
     ethr =  2.39E-04,  avg # of iterations =  7.8

     negative rho (up, down):  2.240E-05 0.000E+00

     total cpu time spent up to now is        1.0 secs

     total energy              =     -22.46098429 Ry
     estimated scf accuracy    <       0.02050016 Ry

     iteration #  2     ecut=    50.00 Ry     beta= 0.70
     Davidson diagonalization with overlap
     ethr =  2.56E-04,  avg # of iterations =  1.1

     negative rho (up, down):  1.914E-07 0.000E+00

     total cpu time spent up to now is        1.2 secs

     total energy              =     -22.46187316 Ry
     estimated scf accuracy    <       0.00140697 Ry

     iteration #  3     ecut=    50.00 Ry     beta= 0.70
     Davidson diagonalization with overlap
     c_bands:  2 eigenvalues not converged
     c_bands:  3 eigenvalues not converged
     c_bands:  1 eigenvalues not converged
     c_bands:  2 eigenvalues not converged
     ethr =  1.76E-05,  avg # of iterations =  7.3

     total cpu time spent up to now is        1.4 secs

     total energy              =     -22.46200657 Ry
     estimated scf accuracy    <       0.00001250 Ry

     iteration #  4     ecut=    50.00 Ry     beta= 0.70
     Davidson diagonalization with overlap
     c_bands:  1 eigenvalues not converged
     c_bands:  1 eigenvalues not converged
     c_bands:  1 eigenvalues not converged
     c_bands:  1 eigenvalues not converged
     ethr =  1.56E-07,  avg # of iterations =  8.7

     total cpu time spent up to now is        1.8 secs

     total energy              =     -22.46202676 Ry
     estimated scf accuracy    <       0.00000017 Ry

     iteration #  5     ecut=    50.00 Ry     beta= 0.70
     Davidson diagonalization with overlap
     ethr =  2.13E-09,  avg # of iterations =  4.0

     total cpu time spent up to now is        2.0 secs

     total energy              =     -22.46202695 Ry
     estimated scf accuracy    <       0.00000006 Ry

     iteration #  6     ecut=    50.00 Ry     beta= 0.70
     Davidson diagonalization with overlap
     ethr =  7.57E-10,  avg # of iterations =  2.0

     total cpu time spent up to now is        2.1 secs

     End of self-consistent calculation

          k = 0.0000 0.0000 0.0000 (  7159 PWs)   bands (ev):

   -20.5463  -9.7110  -8.4196  -8.4196  -4.5755  -0.8326  -0.7558  -0.7557

          k = 0.0000 0.0770 0.0000 (  7109 PWs)   bands (ev):

   -20.4783  -9.6395  -8.8877  -8.5263  -4.2104  -0.7687  -0.6922  -0.5328

          k = 0.0000 0.1540 0.0000 (  7097 PWs)   bands (ev):

   -20.2754  -9.9324  -9.4291  -8.8094  -3.5663  -0.7487  -0.5512  -0.4164

          k = 0.0000 0.2309 0.0000 (  7077 PWs)   bands (ev):

   -19.9405 -11.1599  -9.1757  -9.0845  -3.1955  -1.3597  -0.0322   0.1461

          k = 0.0000 0.3079 0.0000 (  7057 PWs)   bands (ev):

   -19.4805 -12.4095  -9.5427  -8.6194  -3.1631  -2.1212   0.6395   1.1115

          k = 0.0000 0.3849 0.0000 (  7045 PWs)   bands (ev):

   -18.9102 -13.6051  -9.8550  -8.0598  -3.2727  -2.9536   1.4693   2.0728

          k = 0.0000 0.4619 0.0000 (  7018 PWs)   bands (ev):

   -18.2706 -14.6744 -10.0774  -7.4644  -3.7559  -3.3922   2.4579   3.0358

          k = 0.0000 0.5389 0.0000 (  7008 PWs)   bands (ev):

   -17.7153 -15.4487 -10.1923  -7.0003  -4.3335  -3.4628   3.4647   3.9784

          k = 0.0667 0.1155 0.0000 (  7077 PWs)   bands (ev):

   -20.3428  -9.6062  -9.4987  -8.7459  -3.7016  -0.6930  -0.6167  -0.5290

          k = 0.0667 0.1925 0.0000 (  7083 PWs)   bands (ev):

   -20.0738 -10.6750  -9.2209  -9.1193  -3.1429  -1.1211  -0.4461  -0.1631

          k = 0.0667 0.2694 0.0000 (  7078 PWs)   bands (ev):

   -19.6759 -11.8619  -9.5308  -8.8154  -2.8943  -1.8014   0.2096   0.3972

          k = 0.0667 0.3464 0.0000 (  7064 PWs)   bands (ev):

   -19.1589 -13.0530  -9.9031  -8.3005  -2.9159  -2.5921   1.0935   1.2346

          k = 0.0667 0.4234 0.0000 (  7033 PWs)   bands (ev):

   -18.5461 -14.1730 -10.1914  -7.7122  -3.4125  -3.0232   2.0106   2.2758

          k = 0.0667 0.5004 0.0000 (  7011 PWs)   bands (ev):

   -17.9124 -15.1209 -10.3724  -7.1472  -4.1321  -3.1151   2.9575   3.2517

          k = 0.0667 0.5774 0.0000 (  6994 PWs)   bands (ev):

   -17.5631 -15.5766 -10.4330  -6.8704  -4.4622  -3.1493   3.3411   4.3513

          k = 0.1333 0.2309 0.0000 (  7085 PWs)   bands (ev):

   -19.7414 -11.6173  -9.6109  -8.8815  -2.5919  -1.6864  -0.3217   0.2873

          k = 0.1333 0.3079 0.0000 (  7067 PWs)   bands (ev):

   -19.2847 -12.6585 -10.1118  -8.4223  -2.3885  -2.2554   0.1885   0.9249

          k = 0.1333 0.3849 0.0000 (  7032 PWs)   bands (ev):

   -18.7179 -13.7189 -10.5247  -7.8671  -3.1638  -2.2075   1.0823   1.7400

          k = 0.1333 0.4619 0.0000 (  7023 PWs)   bands (ev):

   -18.0789 -14.7132 -10.8107  -7.2706  -3.9276  -2.2642   2.0225   2.7414

          k = 0.1333 0.5389 0.0000 (  7003 PWs)   bands (ev):

   -17.5130 -15.4640 -10.9557  -6.7898  -4.4970  -2.3122   2.6406   3.9345

          k = 0.2000 0.3464 0.0000 (  7043 PWs)   bands (ev):

   -18.7762 -13.5158 -10.7090  -7.9201  -3.0729  -1.6084   0.3703   1.6489

          k = 0.2000 0.4234 0.0000 (  7015 PWs)   bands (ev):

   -18.1707 -14.4022 -11.1802  -7.3400  -3.7973  -1.2989   0.9835   2.5497

          k = 0.2000 0.5004 0.0000 (  7021 PWs)   bands (ev):

   -17.5295 -15.2304 -11.4706  -6.7577  -4.4730  -1.2399   1.7191   3.6264

          k = 0.2000 0.5774 0.0000 (  7032 PWs)   bands (ev):

   -17.1495 -15.6764 -11.5684  -6.4436  -4.8185  -1.2386   2.0497   4.2937

          k = 0.2667 0.4619 0.0000 (  7014 PWs)   bands (ev):

   -17.5438 -15.1068 -11.6903  -6.7511  -4.4541  -0.5266   1.0654   3.5254

          k = 0.2667 0.5389 0.0000 (  7034 PWs)   bands (ev):

   -16.9309 -15.7581 -11.9630  -6.1980  -5.0388  -0.1820   1.3161   4.1508

          k = 0.3333 0.5774 0.0000 (  7014 PWs)   bands (ev):

   -16.3269 -16.3269 -12.1441  -5.6172  -5.6172   0.7059   0.7059   4.1486

     the Fermi energy is    -5.6172 ev

!    total energy              =     -22.46202696 Ry
     estimated scf accuracy    <          5.2E-11 Ry
     smearing contrib. (-TS)   =      -0.00005015 Ry
     internal energy E=F+TS    =     -22.46197681 Ry

     The total energy is F=E-TS. E is the sum of the following terms:
     one-electron contribution =    -249.17031655 Ry
     hartree contribution      =     124.93280471 Ry
     xc contribution           =      -6.22448664 Ry
     ewald contribution        =     108.00002168 Ry

     convergence has been achieved in   6 iterations

     Forces acting on atoms (cartesian axes, Ry/au):

     atom    1 type  1   force =     0.00000000    0.00000000    0.00000000
     atom    2 type  1   force =    -0.00000000   -0.00000000    0.00000000

     Total force =     0.000000     Total SCF correction =     0.000000


     Computing stress (Cartesian axis) and pressure

          total   stress  (Ry/bohr**3)                   (kbar)     P=     -106.61
  -0.00105627  -0.00000000   0.00000000         -155.38       -0.00        0.00
  -0.00000000  -0.00105627   0.00000000           -0.00     -155.38        0.00
   0.00000000   0.00000000  -0.00006163            0.00        0.00       -9.07


     Writing output data file ./work/LiC580.save/
 
     init_run     :      0.12s CPU      0.14s WALL (       1 calls)
     electrons    :      1.84s CPU      1.98s WALL (       1 calls)
     forces       :      0.01s CPU      0.01s WALL (       1 calls)
     stress       :      0.03s CPU      0.03s WALL (       1 calls)

     Called by init_run:
     wfcinit      :      0.07s CPU      0.08s WALL (       1 calls)
     potinit      :      0.04s CPU      0.04s WALL (       1 calls)
     hinit0       :      0.01s CPU      0.01s WALL (       1 calls)

     Called by electrons:
     c_bands      :      1.63s CPU      1.73s WALL (       7 calls)
     sum_band     :      0.19s CPU      0.19s WALL (       7 calls)
     v_of_rho     :      0.02s CPU      0.02s WALL (       7 calls)
     mix_rho      :      0.00s CPU      0.00s WALL (       7 calls)

     Called by c_bands:
     init_us_2    :      0.01s CPU      0.02s WALL (     459 calls)
     cegterg      :      1.60s CPU      1.69s WALL (     189 calls)

     Called by *egterg:
     cdiaghg      :      0.12s CPU      0.13s WALL (    1319 calls)
     h_psi        :      1.42s CPU      1.51s WALL (    1373 calls)
     g_psi        :      0.00s CPU      0.00s WALL (    1157 calls)

     Called by h_psi:
     h_psi:calbec :      0.05s CPU      0.05s WALL (    1373 calls)
     vloc_psi     :      1.35s CPU      1.43s WALL (    1373 calls)
     add_vuspsi   :      0.01s CPU      0.02s WALL (    1373 calls)

     General routines
     calbec       :      0.05s CPU      0.06s WALL (    1508 calls)
     fft          :      0.02s CPU      0.02s WALL (      78 calls)
     ffts         :      0.00s CPU      0.00s WALL (       7 calls)
     fftw         :      1.45s CPU      1.53s WALL (   14504 calls)
 
     Parallel routines
     fft_scatt_xy :      0.08s CPU      0.09s WALL (   14589 calls)
     fft_scatt_yz :      0.67s CPU      0.71s WALL (   14589 calls)
 
     PWSCF        :      2.05s CPU      2.67s WALL

 
   This run was terminated on:  10:38:24  22Jan2024            

=------------------------------------------------------------------------------=
   JOB DONE.
=------------------------------------------------------------------------------=
