
     Program PWSCF v.6.7MaX starts on 22Jan2024 at 10:38:28 

     This program is part of the open-source Quantum ESPRESSO suite
     for quantum simulation of materials; please cite
         "P. Giannozzi et al., J. Phys.:Condens. Matter 21 395502 (2009);
         "P. Giannozzi et al., J. Phys.:Condens. Matter 29 465901 (2017);
          URL http://www.quantum-espresso.org", 
     in publications or presentations arising from this work. More details at
     http://www.quantum-espresso.org/quote

     Parallel version (MPI), running on    32 processors

     MPI processes distributed on     1 nodes
     R & G space division:  proc/nbgrp/npool/nimage =      32
     Waiting for input...
     Reading input from standard input
Warning: card &CELL ignored
Warning: card  CELL_DYNAMICS = 'BFGS', ignored
Warning: card  PRESS = 0.0, ignored
Warning: card  PRESS_CONV_THR = 1D-3, ignored
Warning: card  CELL_DOFREE='2DXY' ignored
Warning: card / ignored

     Current dimensions of program PWSCF are:
     Max number of different atomic species (ntypx) = 10
     Max number of k-points (npk) =  40000
     Max angular momentum in pseudopotentials (lmaxx) =  3
     Message from routine read_pp_mesh:
     mesh size missing, using the one in header

     Subspace diagonalization in iterative solution of the eigenvalue problem:
     a serial algorithm will be used

 
     Parallelization info
     --------------------
     sticks:   dense  smooth     PW     G-vecs:    dense   smooth      PW
     Min          15      15      4                 1873     1873     298
     Max          16      16      5                 1904     1904     329
     Sum         499     499    151                60477    60477   10067
 


     bravais-lattice index     =            4
     lattice parameter (alat)  =       6.0000  a.u.
     unit-cell volume          =    1262.6650 (a.u.)^3
     number of atoms/cell      =            2
     number of atomic types    =            1
     number of electrons       =         8.00
     number of Kohn-Sham states=            8
     kinetic-energy cutoff     =      50.0000  Ry
     charge density cutoff     =     200.0000  Ry
     scf convergence threshold =      1.0E-08
     mixing beta               =       0.7000
     number of iterations used =            8  plain     mixing
     Exchange-correlation= PBE
                           (   1   4   3   4   0   0   0)

     celldm(1)=   6.000000  celldm(2)=   0.000000  celldm(3)=   6.750000
     celldm(4)=   0.000000  celldm(5)=   0.000000  celldm(6)=   0.000000

     crystal axes: (cart. coord. in units of alat)
               a(1) = (   1.000000   0.000000   0.000000 )  
               a(2) = (  -0.500000   0.866025   0.000000 )  
               a(3) = (   0.000000   0.000000   6.750000 )  

     reciprocal axes: (cart. coord. in units 2 pi/alat)
               b(1) = (  1.000000  0.577350  0.000000 )  
               b(2) = (  0.000000  1.154701  0.000000 )  
               b(3) = (  0.000000  0.000000  0.148148 )  


     PseudoPot. # 1 for C  read from file:
     /home/yhkim/qe-6.7/pseudo/ONCV1/1.2/C_ONCV_PBE-1.2.upf
     MD5 check sum: 1a5f83a7b1f58d24996abe00ed223ac6
     Pseudo is Norm-conserving, Zval =  4.0
     Generated using ONCVPSP code by D. R. Hamann
     Using radial grid of  602 points,  4 beta functions with: 
                l(1) =   0
                l(2) =   0
                l(3) =   1
                l(4) =   1

     atomic species   valence    mass     pseudopotential
        C              4.00    12.01070     C ( 1.00)

     24 Sym. Ops., with inversion, found



   Cartesian axes

     site n.     atom                  positions (alat units)
         1           C   tau(   1) = (  -0.0000000   0.5773503   3.3750000  )
         2           C   tau(   2) = (   0.5000000   0.2886751   3.3750000  )

     number of k points=    27  Methfessel-Paxton smearing, width (Ry)=  0.0100
                       cart. coord. in units 2pi/alat
        k(    1) = (   0.0000000   0.0000000   0.0000000), wk =   0.0088889
        k(    2) = (   0.0000000   0.0769800   0.0000000), wk =   0.0533333
        k(    3) = (   0.0000000   0.1539601   0.0000000), wk =   0.0533333
        k(    4) = (   0.0000000   0.2309401   0.0000000), wk =   0.0533333
        k(    5) = (   0.0000000   0.3079201   0.0000000), wk =   0.0533333
        k(    6) = (   0.0000000   0.3849002   0.0000000), wk =   0.0533333
        k(    7) = (   0.0000000   0.4618802   0.0000000), wk =   0.0533333
        k(    8) = (   0.0000000   0.5388603   0.0000000), wk =   0.0533333
        k(    9) = (   0.0666667   0.1154701   0.0000000), wk =   0.0533333
        k(   10) = (   0.0666667   0.1924501   0.0000000), wk =   0.1066667
        k(   11) = (   0.0666667   0.2694301   0.0000000), wk =   0.1066667
        k(   12) = (   0.0666667   0.3464102   0.0000000), wk =   0.1066667
        k(   13) = (   0.0666667   0.4233902   0.0000000), wk =   0.1066667
        k(   14) = (   0.0666667   0.5003702   0.0000000), wk =   0.1066667
        k(   15) = (   0.0666667   0.5773503   0.0000000), wk =   0.0533333
        k(   16) = (   0.1333333   0.2309401   0.0000000), wk =   0.0533333
        k(   17) = (   0.1333333   0.3079201   0.0000000), wk =   0.1066667
        k(   18) = (   0.1333333   0.3849002   0.0000000), wk =   0.1066667
        k(   19) = (   0.1333333   0.4618802   0.0000000), wk =   0.1066667
        k(   20) = (   0.1333333   0.5388603   0.0000000), wk =   0.1066667
        k(   21) = (   0.2000000   0.3464102   0.0000000), wk =   0.0533333
        k(   22) = (   0.2000000   0.4233902   0.0000000), wk =   0.1066667
        k(   23) = (   0.2000000   0.5003702   0.0000000), wk =   0.1066667
        k(   24) = (   0.2000000   0.5773503   0.0000000), wk =   0.0533333
        k(   25) = (   0.2666667   0.4618802   0.0000000), wk =   0.0533333
        k(   26) = (   0.2666667   0.5388603   0.0000000), wk =   0.1066667
        k(   27) = (   0.3333333   0.5773503   0.0000000), wk =   0.0177778

     Dense  grid:    60477 G-vectors     FFT dimensions: (  27,  27, 192)

     Estimated max dynamical RAM per process >       2.39 MB

     Estimated total dynamical RAM >      76.59 MB
 ----2D----2D----2D----2D----2D----2D----2D----2D----2D----2D----2D----2D
  The code is running with the 2D cutoff
  Please refer to:
  Sohier, T., Calandra, M., & Mauri, F. (2017), 
  Density functional perturbation theory for gated two-dimensional heterostructu
 res:
  Theoretical developments and application to flexural phonons in graphene.
  Physical Review B, 96(7), 75448. https://doi.org/10.1103/PhysRevB.96.075448
 ----2D----2D----2D----2D----2D----2D----2D----2D----2D----2D----2D----2D

     Initial potential from superposition of free atoms

     starting charge    7.98607, renormalised to    8.00000

     negative rho (up, down):  1.534E-04 0.000E+00
     Starting wfcs are random

     total cpu time spent up to now is        0.2 secs

     Self-consistent Calculation

     iteration #  1     ecut=    50.00 Ry     beta= 0.70
     Davidson diagonalization with overlap
     ethr =  1.00E-02,  avg # of iterations = 12.4

     Threshold (ethr) on eigenvalues was too large:
     Diagonalizing with lowered threshold

     Davidson diagonalization with overlap
     c_bands:  1 eigenvalues not converged
     ethr =  2.12E-04,  avg # of iterations =  8.0

     negative rho (up, down):  2.349E-05 0.000E+00

     total cpu time spent up to now is        1.0 secs

     total energy              =     -22.38115980 Ry
     estimated scf accuracy    <       0.01576785 Ry

     iteration #  2     ecut=    50.00 Ry     beta= 0.70
     Davidson diagonalization with overlap
     ethr =  1.97E-04,  avg # of iterations =  1.0

     total cpu time spent up to now is        1.2 secs

     total energy              =     -22.38161454 Ry
     estimated scf accuracy    <       0.00131652 Ry

     iteration #  3     ecut=    50.00 Ry     beta= 0.70
     Davidson diagonalization with overlap
     ethr =  1.65E-05,  avg # of iterations =  7.7

     total cpu time spent up to now is        1.4 secs

     total energy              =     -22.38173627 Ry
     estimated scf accuracy    <       0.00000250 Ry

     iteration #  4     ecut=    50.00 Ry     beta= 0.70
     Davidson diagonalization with overlap
     ethr =  3.12E-08,  avg # of iterations =  8.4

     total cpu time spent up to now is        1.8 secs

     total energy              =     -22.38175630 Ry
     estimated scf accuracy    <       0.00000032 Ry

     iteration #  5     ecut=    50.00 Ry     beta= 0.70
     Davidson diagonalization with overlap
     ethr =  4.05E-09,  avg # of iterations =  2.3

     total cpu time spent up to now is        1.9 secs

     total energy              =     -22.38175634 Ry
     estimated scf accuracy    <       0.00000013 Ry

     iteration #  6     ecut=    50.00 Ry     beta= 0.70
     Davidson diagonalization with overlap
     ethr =  1.58E-09,  avg # of iterations =  2.0

     total cpu time spent up to now is        2.1 secs

     End of self-consistent calculation

          k = 0.0000 0.0000 0.0000 (  7531 PWs)   bands (ev):

   -20.0750  -9.4236  -8.4377  -8.4377  -5.9133  -1.2850  -1.2849  -0.8096

          k = 0.0000 0.0770 0.0000 (  7533 PWs)   bands (ev):

   -20.0120  -9.3589  -8.9834  -8.5349  -5.4568  -1.2633  -1.0897  -1.0885

          k = 0.0000 0.1540 0.0000 (  7545 PWs)   bands (ev):

   -19.8239 -10.0627  -9.1683  -8.7874  -4.7006  -1.4361  -1.1114  -0.5443

          k = 0.0000 0.2309 0.0000 (  7528 PWs)   bands (ev):

   -19.5141 -11.2533  -9.1159  -8.8563  -4.1882  -1.9631  -0.6455  -0.0173

          k = 0.0000 0.3079 0.0000 (  7530 PWs)   bands (ev):

   -19.0893 -12.4366  -9.4474  -8.4360  -4.0204  -2.6244   0.1689   0.5854

          k = 0.0000 0.3849 0.0000 (  7542 PWs)   bands (ev):

   -18.5652 -13.5535  -9.7312  -7.9314  -4.0460  -3.3501   1.1446   1.3460

          k = 0.0000 0.4619 0.0000 (  7546 PWs)   bands (ev):

   -17.9830 -14.5410  -9.9327  -7.3980  -4.1201  -4.0536   2.0189   2.2923

          k = 0.0000 0.5389 0.0000 (  7562 PWs)   bands (ev):

   -17.4906 -15.2386 -10.0381  -6.9858  -4.5587  -4.1714   2.5438   3.4259

          k = 0.0667 0.1155 0.0000 (  7547 PWs)   bands (ev):

   -19.8865  -9.7410  -9.2321  -8.7301  -4.8733  -1.3226  -1.2253  -0.6796

          k = 0.0667 0.1925 0.0000 (  7532 PWs)   bands (ev):

   -19.6373 -10.7961  -9.0646  -8.9797  -4.2247  -1.7554  -1.0398  -0.1918

          k = 0.0667 0.2694 0.0000 (  7534 PWs)   bands (ev):

   -19.2695 -11.9296  -9.4357  -8.6130  -3.8444  -2.3467  -0.5185   0.3237

          k = 0.0667 0.3464 0.0000 (  7524 PWs)   bands (ev):

   -18.7930 -13.0484  -9.7740  -8.1472  -3.7537  -3.0364   0.3135   1.0052

          k = 0.0667 0.4234 0.0000 (  7536 PWs)   bands (ev):

   -18.2317 -14.0889 -10.0377  -7.6187  -3.7940  -3.7557   1.2248   1.8515

          k = 0.0667 0.5004 0.0000 (  7553 PWs)   bands (ev):

   -17.6604 -14.9552 -10.2038  -7.1147  -4.3870  -3.8525   1.9471   2.8746

          k = 0.0667 0.5774 0.0000 (  7570 PWs)   bands (ev):

   -17.3554 -15.3598 -10.2603  -6.8704  -4.6769  -3.8771   2.2274   3.6009

          k = 0.1333 0.2309 0.0000 (  7549 PWs)   bands (ev):

   -19.3300 -11.7110  -9.5040  -8.6732  -3.6399  -2.2488  -0.9325   0.2366

          k = 0.1333 0.3079 0.0000 (  7538 PWs)   bands (ev):

   -18.9085 -12.7008  -9.9568  -8.2576  -3.2278  -2.8629  -0.5260   0.8336

          k = 0.1333 0.3849 0.0000 (  7511 PWs)   bands (ev):

   -18.3873 -13.6930 -10.3330  -7.7576  -3.5426  -3.0849   0.2044   1.5962

          k = 0.1333 0.4619 0.0000 (  7537 PWs)   bands (ev):

   -17.8043 -14.6109 -10.5971  -7.2227  -4.2147  -3.0828   0.9996   2.5229

          k = 0.1333 0.5389 0.0000 (  7560 PWs)   bands (ev):

   -17.2997 -15.2888 -10.7317  -6.7963  -4.7165  -3.1049   1.5321   3.6109

          k = 0.2000 0.3464 0.0000 (  7539 PWs)   bands (ev):

   -18.4401 -13.5228 -10.4916  -7.8056  -3.4669  -2.6083  -0.3663   1.5108

          k = 0.2000 0.4234 0.0000 (  7515 PWs)   bands (ev):

   -17.8842 -14.3567 -10.9166  -7.2834  -4.1077  -2.2521   0.1111   2.3499

          k = 0.2000 0.5004 0.0000 (  7535 PWs)   bands (ev):

   -17.3014 -15.1201 -11.1820  -6.7625  -4.7059  -2.1387   0.6903   3.3458

          k = 0.2000 0.5774 0.0000 (  7572 PWs)   bands (ev):

   -16.9642 -15.5205 -11.2716  -6.4850  -5.0120  -2.1194   0.9535   3.9861

          k = 0.2667 0.4619 0.0000 (  7537 PWs)   bands (ev):

   -17.3092 -15.0312 -11.3697  -6.7546  -4.6944  -1.5318   0.1353   3.2544

          k = 0.2667 0.5389 0.0000 (  7545 PWs)   bands (ev):

   -16.7501 -15.6394 -11.6102  -6.2607  -5.2169  -1.1679   0.2723   3.8776

          k = 0.3333 0.5774 0.0000 (  7521 PWs)   bands (ev):

   -16.1855 -16.1855 -11.7657  -5.7384  -5.7384  -0.3344  -0.3344   3.8960

     the Fermi energy is    -5.7813 ev

!    total energy              =     -22.38175636 Ry
     estimated scf accuracy    <          9.0E-10 Ry
     smearing contrib. (-TS)   =      -0.00002941 Ry
     internal energy E=F+TS    =     -22.38172695 Ry

     The total energy is F=E-TS. E is the sum of the following terms:
     one-electron contribution =    -232.95666207 Ry
     hartree contribution      =     116.81161771 Ry
     xc contribution           =      -6.13347754 Ry
     ewald contribution        =      99.89679495 Ry

     convergence has been achieved in   6 iterations

     Forces acting on atoms (cartesian axes, Ry/au):

     atom    1 type  1   force =     0.00000000    0.00000000    0.00000000
     atom    2 type  1   force =     0.00000000    0.00000000    0.00000000

     Total force =     0.000000     Total SCF correction =     0.000000


     Computing stress (Cartesian axis) and pressure

          total   stress  (Ry/bohr**3)                   (kbar)     P=     -100.02
  -0.00099126   0.00000000   0.00000000         -145.82        0.00        0.00
   0.00000000  -0.00099126   0.00000000            0.00     -145.82        0.00
   0.00000000   0.00000000  -0.00005722            0.00        0.00       -8.42


     Writing output data file ./work/LiC600.save/
 
     init_run     :      0.10s CPU      0.12s WALL (       1 calls)
     electrons    :      1.82s CPU      1.95s WALL (       1 calls)
     forces       :      0.01s CPU      0.01s WALL (       1 calls)
     stress       :      0.03s CPU      0.03s WALL (       1 calls)

     Called by init_run:
     wfcinit      :      0.07s CPU      0.08s WALL (       1 calls)
     potinit      :      0.01s CPU      0.02s WALL (       1 calls)
     hinit0       :      0.01s CPU      0.01s WALL (       1 calls)

     Called by electrons:
     c_bands      :      1.61s CPU      1.70s WALL (       7 calls)
     sum_band     :      0.18s CPU      0.19s WALL (       7 calls)
     v_of_rho     :      0.02s CPU      0.02s WALL (       7 calls)
     mix_rho      :      0.00s CPU      0.00s WALL (       7 calls)

     Called by c_bands:
     init_us_2    :      0.01s CPU      0.02s WALL (     459 calls)
     cegterg      :      1.58s CPU      1.67s WALL (     189 calls)

     Called by *egterg:
     cdiaghg      :      0.12s CPU      0.13s WALL (    1292 calls)
     h_psi        :      1.40s CPU      1.48s WALL (    1346 calls)
     g_psi        :      0.00s CPU      0.00s WALL (    1130 calls)

     Called by h_psi:
     h_psi:calbec :      0.05s CPU      0.05s WALL (    1346 calls)
     vloc_psi     :      1.33s CPU      1.41s WALL (    1346 calls)
     add_vuspsi   :      0.01s CPU      0.02s WALL (    1346 calls)

     General routines
     calbec       :      0.05s CPU      0.05s WALL (    1481 calls)
     fft          :      0.02s CPU      0.02s WALL (      78 calls)
     ffts         :      0.00s CPU      0.00s WALL (       7 calls)
     fftw         :      1.43s CPU      1.51s WALL (   14446 calls)
 
     Parallel routines
     fft_scatt_xy :      0.08s CPU      0.09s WALL (   14531 calls)
     fft_scatt_yz :      0.66s CPU      0.70s WALL (   14531 calls)
 
     PWSCF        :      2.01s CPU      2.62s WALL

 
   This run was terminated on:  10:38:31  22Jan2024            

=------------------------------------------------------------------------------=
   JOB DONE.
=------------------------------------------------------------------------------=
