
     Program PWSCF v.6.7MaX starts on 19Jan2024 at 14: 4:49 

     This program is part of the open-source Quantum ESPRESSO suite
     for quantum simulation of materials; please cite
         "P. Giannozzi et al., J. Phys.:Condens. Matter 21 395502 (2009);
         "P. Giannozzi et al., J. Phys.:Condens. Matter 29 465901 (2017);
          URL http://www.quantum-espresso.org", 
     in publications or presentations arising from this work. More details at
     http://www.quantum-espresso.org/quote

     Parallel version (MPI), running on    32 processors

     MPI processes distributed on     1 nodes
     R & G space division:  proc/nbgrp/npool/nimage =      32
     Waiting for input...
     Reading input from standard input

     Current dimensions of program PWSCF are:
     Max number of different atomic species (ntypx) = 10
     Max number of k-points (npk) =  40000
     Max angular momentum in pseudopotentials (lmaxx) =  3
     Message from routine read_pp_mesh:
     mesh size missing, using the one in header

     Subspace diagonalization in iterative solution of the eigenvalue problem:
     a serial algorithm will be used

 
     Parallelization info
     --------------------
     sticks:   dense  smooth     PW     G-vecs:    dense   smooth      PW
     Min           7       7      2                  908      908     160
     Max           9       9      3                  944      944     191
     Sum         253     253     85                29643    29643    5577
 


     bravais-lattice index     =            4
     lattice parameter (alat)  =       4.2000  a.u.
     unit-cell volume          =     618.7059 (a.u.)^3
     number of atoms/cell      =            2
     number of atomic types    =            1
     number of electrons       =         8.00
     number of Kohn-Sham states=            8
     kinetic-energy cutoff     =      50.0000  Ry
     charge density cutoff     =     200.0000  Ry
     scf convergence threshold =      1.0E-08
     mixing beta               =       0.7000
     number of iterations used =            8  plain     mixing
     energy convergence thresh.=      1.0E-04
     force convergence thresh. =      1.0E-08
     press convergence thresh. =      1.0E-03
     Exchange-correlation= PBE
                           (   1   4   3   4   0   0   0)
     nstep                     =           50


     celldm(1)=   4.200000  celldm(2)=   0.000000  celldm(3)=   9.642857
     celldm(4)=   0.000000  celldm(5)=   0.000000  celldm(6)=   0.000000

     crystal axes: (cart. coord. in units of alat)
               a(1) = (   1.000000   0.000000   0.000000 )  
               a(2) = (  -0.500000   0.866025   0.000000 )  
               a(3) = (   0.000000   0.000000   9.642857 )  

     reciprocal axes: (cart. coord. in units 2 pi/alat)
               b(1) = (  1.000000  0.577350  0.000000 )  
               b(2) = (  0.000000  1.154701  0.000000 )  
               b(3) = (  0.000000  0.000000  0.103704 )  


     PseudoPot. # 1 for C  read from file:
     /home/yhkim/qe-6.7/pseudo/ONCV1/1.2/C_ONCV_PBE-1.2.upf
     MD5 check sum: 1a5f83a7b1f58d24996abe00ed223ac6
     Pseudo is Norm-conserving, Zval =  4.0
     Generated using ONCVPSP code by D. R. Hamann
     Using radial grid of  602 points,  4 beta functions with: 
                l(1) =   0
                l(2) =   0
                l(3) =   1
                l(4) =   1

     atomic species   valence    mass     pseudopotential
        C              4.00    12.01070     C ( 1.00)

     24 Sym. Ops., with inversion, found



   Cartesian axes

     site n.     atom                  positions (alat units)
         1           C   tau(   1) = (  -0.0000000   0.5773503   4.8214286  )
         2           C   tau(   2) = (   0.5000000   0.2886751   4.8214286  )

     number of k points=    27  Methfessel-Paxton smearing, width (Ry)=  0.0100
                       cart. coord. in units 2pi/alat
        k(    1) = (   0.0000000   0.0000000   0.0000000), wk =   0.0088889
        k(    2) = (   0.0000000   0.0769800   0.0000000), wk =   0.0533333
        k(    3) = (   0.0000000   0.1539601   0.0000000), wk =   0.0533333
        k(    4) = (   0.0000000   0.2309401   0.0000000), wk =   0.0533333
        k(    5) = (   0.0000000   0.3079201   0.0000000), wk =   0.0533333
        k(    6) = (   0.0000000   0.3849002   0.0000000), wk =   0.0533333
        k(    7) = (   0.0000000   0.4618802   0.0000000), wk =   0.0533333
        k(    8) = (   0.0000000   0.5388603   0.0000000), wk =   0.0533333
        k(    9) = (   0.0666667   0.1154701   0.0000000), wk =   0.0533333
        k(   10) = (   0.0666667   0.1924501   0.0000000), wk =   0.1066667
        k(   11) = (   0.0666667   0.2694301   0.0000000), wk =   0.1066667
        k(   12) = (   0.0666667   0.3464102   0.0000000), wk =   0.1066667
        k(   13) = (   0.0666667   0.4233902   0.0000000), wk =   0.1066667
        k(   14) = (   0.0666667   0.5003702   0.0000000), wk =   0.1066667
        k(   15) = (   0.0666667   0.5773503   0.0000000), wk =   0.0533333
        k(   16) = (   0.1333333   0.2309401   0.0000000), wk =   0.0533333
        k(   17) = (   0.1333333   0.3079201   0.0000000), wk =   0.1066667
        k(   18) = (   0.1333333   0.3849002   0.0000000), wk =   0.1066667
        k(   19) = (   0.1333333   0.4618802   0.0000000), wk =   0.1066667
        k(   20) = (   0.1333333   0.5388603   0.0000000), wk =   0.1066667
        k(   21) = (   0.2000000   0.3464102   0.0000000), wk =   0.0533333
        k(   22) = (   0.2000000   0.4233902   0.0000000), wk =   0.1066667
        k(   23) = (   0.2000000   0.5003702   0.0000000), wk =   0.1066667
        k(   24) = (   0.2000000   0.5773503   0.0000000), wk =   0.0533333
        k(   25) = (   0.2666667   0.4618802   0.0000000), wk =   0.0533333
        k(   26) = (   0.2666667   0.5388603   0.0000000), wk =   0.1066667
        k(   27) = (   0.3333333   0.5773503   0.0000000), wk =   0.0177778

     Dense  grid:    29643 G-vectors     FFT dimensions: (  20,  20, 192)

     Estimated max dynamical RAM per process >       1.68 MB

     Estimated total dynamical RAM >      53.86 MB
 ----2D----2D----2D----2D----2D----2D----2D----2D----2D----2D----2D----2D
  The code is running with the 2D cutoff
  Please refer to:
  Sohier, T., Calandra, M., & Mauri, F. (2017), 
  Density functional perturbation theory for gated two-dimensional heterostructu
 res:
  Theoretical developments and application to flexural phonons in graphene.
  Physical Review B, 96(7), 75448. https://doi.org/10.1103/PhysRevB.96.075448
 ----2D----2D----2D----2D----2D----2D----2D----2D----2D----2D----2D----2D

     Initial potential from superposition of free atoms

     starting charge    7.98607, renormalised to    8.00000

     negative rho (up, down):  1.060E-04 0.000E+00
     Starting wfcs are random

     total cpu time spent up to now is        0.1 secs

     Self-consistent Calculation

     iteration #  1     ecut=    50.00 Ry     beta= 0.70
     Davidson diagonalization with overlap
     ethr =  1.00E-02,  avg # of iterations = 11.1

     negative rho (up, down):  1.770E-07 0.000E+00

     total cpu time spent up to now is        0.6 secs

     total energy              =     -22.60356109 Ry
     estimated scf accuracy    <       0.38072626 Ry

     iteration #  2     ecut=    50.00 Ry     beta= 0.70
     Davidson diagonalization with overlap
     ethr =  4.76E-03,  avg # of iterations =  2.1

     total cpu time spent up to now is        0.7 secs

     total energy              =     -22.66055962 Ry
     estimated scf accuracy    <       0.00265284 Ry

     iteration #  3     ecut=    50.00 Ry     beta= 0.70
     Davidson diagonalization with overlap
     ethr =  3.32E-05,  avg # of iterations = 11.1

     total cpu time spent up to now is        1.0 secs

     total energy              =     -22.66213826 Ry
     estimated scf accuracy    <       0.00017783 Ry

     iteration #  4     ecut=    50.00 Ry     beta= 0.70
     Davidson diagonalization with overlap
     ethr =  2.22E-06,  avg # of iterations =  5.3

     total cpu time spent up to now is        1.1 secs

     total energy              =     -22.66217504 Ry
     estimated scf accuracy    <       0.00000173 Ry

     iteration #  5     ecut=    50.00 Ry     beta= 0.70
     Davidson diagonalization with overlap
     ethr =  2.16E-08,  avg # of iterations =  3.7

     total cpu time spent up to now is        1.3 secs

     total energy              =     -22.66217756 Ry
     estimated scf accuracy    <       0.00000014 Ry

     iteration #  6     ecut=    50.00 Ry     beta= 0.70
     Davidson diagonalization with overlap
     ethr =  1.74E-09,  avg # of iterations =  2.1

     total cpu time spent up to now is        1.4 secs

     End of self-consistent calculation

          k = 0.0000 0.0000 0.0000 (  3727 PWs)   bands (ev):

   -25.4075 -13.1982  -6.0698  -1.0338  -0.2111   0.5591   0.9143   2.2378

          k = 0.0000 0.0770 0.0000 (  3725 PWs)   bands (ev):

   -25.2831 -13.0366  -6.5595  -6.3789  -0.8594  -0.0322   0.7381   1.0934

          k = 0.0000 0.1540 0.0000 (  3702 PWs)   bands (ev):

   -24.9107 -12.5564  -7.8656  -7.1471  -0.3349   0.5037   1.2756   1.6305

          k = 0.0000 0.2309 0.0000 (  3692 PWs)   bands (ev):

   -24.2927 -11.7654  -9.6767  -8.0908   0.5403   1.3950   2.1716   2.5239

          k = 0.0000 0.3079 0.0000 (  3674 PWs)   bands (ev):

   -23.4325 -11.7188 -10.6758  -8.9962   1.7644   2.6332   3.4260   3.7636

          k = 0.0000 0.3849 0.0000 (  3688 PWs)   bands (ev):

   -22.3372 -13.8125  -9.7435  -9.3265   2.9786   3.3337   4.3139   5.0376

          k = 0.0000 0.4619 0.0000 (  3718 PWs)   bands (ev):

   -21.0152 -15.8418 -10.2728  -7.8148   0.6139   5.2393   6.2285   6.9939

          k = 0.0000 0.5389 0.0000 (  3702 PWs)   bands (ev):

   -19.4794 -17.7409 -10.5409  -6.5049  -1.1628   7.3368   7.7249   8.5183

          k = 0.0667 0.1155 0.0000 (  3699 PWs)   bands (ev):

   -25.0347 -12.7157  -7.3804  -6.9895  -0.5096   0.3251   1.0964   1.4516

          k = 0.0667 0.1925 0.0000 (  3693 PWs)   bands (ev):

   -24.5395 -12.0797  -8.8281  -7.9567   0.1910   1.0390   1.8133   2.1669

          k = 0.0667 0.2694 0.0000 (  3679 PWs)   bands (ev):

   -23.8005 -11.1379 -10.6926  -8.9355   1.2416   2.1061   2.8889   3.2369

          k = 0.0667 0.3464 0.0000 (  3686 PWs)   bands (ev):

   -22.8231 -12.7311  -9.9144  -9.7822   2.6395   3.4729   4.2546   4.3226

          k = 0.0667 0.4234 0.0000 (  3697 PWs)   bands (ev):

   -21.6147 -14.7790 -10.4246  -8.4646   1.7466   4.3795   5.3373   6.1124

          k = 0.0667 0.5004 0.0000 (  3712 PWs)   bands (ev):

   -20.1863 -16.7377 -10.8236  -6.9686  -0.4084   6.4483   7.4480   8.0672

          k = 0.0667 0.5774 0.0000 (  3692 PWs)   bands (ev):

   -18.6152 -18.4866 -10.9581  -6.1457  -1.4587   8.0284   8.8183   8.9724

          k = 0.1333 0.2309 0.0000 (  3687 PWs)   bands (ev):

   -23.9235 -11.2927 -10.0424  -9.2381   1.0681   1.9296   2.7102   3.0600

          k = 0.1333 0.3079 0.0000 (  3703 PWs)   bands (ev):

   -23.0673 -11.6908 -10.3622 -10.2122   2.2938   3.1688   3.9655   4.3021

          k = 0.1333 0.3849 0.0000 (  3699 PWs)   bands (ev):

   -21.9776 -13.6183 -11.1559  -8.8704   2.7560   3.8637   4.7817   5.5785

          k = 0.1333 0.4619 0.0000 (  3701 PWs)   bands (ev):

   -20.6640 -15.5714 -11.6830  -7.3595   0.5229   5.7707   6.7029   7.5472

          k = 0.1333 0.5389 0.0000 (  3694 PWs)   bands (ev):

   -19.1408 -17.4305 -11.9484  -6.0258  -1.2011   7.9973   8.8924   9.4722

          k = 0.2000 0.3464 0.0000 (  3703 PWs)   bands (ev):

   -22.0990 -12.7362 -11.9207  -9.0088   3.2088   3.6916   4.5778   5.4006

          k = 0.2000 0.4234 0.0000 (  3699 PWs)   bands (ev):

   -20.9045 -14.3342 -12.8323  -7.5754   1.2207   5.4276   6.3008   7.1911

          k = 0.2000 0.5004 0.0000 (  3678 PWs)   bands (ev):

   -19.4977 -16.1547 -13.2558  -6.0603  -0.6698   7.4871   8.1745   9.3928

          k = 0.2000 0.5774 0.0000 (  3684 PWs)   bands (ev):

   -17.9057 -17.8987 -13.3916  -5.1669  -1.6983   9.0777   9.7516   9.9095

          k = 0.2667 0.4619 0.0000 (  3677 PWs)   bands (ev):

   -19.6175 -15.0100 -14.4298  -6.0931  -0.3920   7.3149   7.8653   9.1489

          k = 0.2667 0.5389 0.0000 (  3665 PWs)   bands (ev):

   -18.1404 -16.5130 -14.9261  -4.6487  -1.8983   8.2546   9.4811  10.9828

          k = 0.3333 0.5774 0.0000 (  3699 PWs)   bands (ev):

   -16.7453 -16.7453 -16.3313  -3.2301  -3.2301   7.9194  11.4841  11.4841

     the Fermi energy is    -3.1877 ev

!    total energy              =     -22.66217759 Ry
     estimated scf accuracy    <          4.9E-09 Ry
     smearing contrib. (-TS)   =      -0.00003668 Ry
     internal energy E=F+TS    =     -22.66214091 Ry

     The total energy is F=E-TS. E is the sum of the following terms:
     one-electron contribution =    -477.41380900 Ry
     hartree contribution      =     239.57354634 Ry
     xc contribution           =      -7.48682261 Ry
     ewald contribution        =     222.66494437 Ry

     convergence has been achieved in   6 iterations

     Forces acting on atoms (cartesian axes, Ry/au):

     atom    1 type  1   force =     0.00000000    0.00000000    0.00000000
     atom    2 type  1   force =     0.00000000    0.00000000    0.00000000

     Total force =     0.000000     Total SCF correction =     0.000000


     Computing stress (Cartesian axis) and pressure

          total   stress  (Ry/bohr**3)                   (kbar)     P=      181.52
   0.00192127   0.00000000  -0.00000000          282.63        0.00       -0.00
   0.00000000   0.00192127   0.00000000            0.00      282.63        0.00
  -0.00000000   0.00000000  -0.00014074           -0.00        0.00      -20.70


     BFGS Geometry Optimization
     Energy error            =      0.0E+00
     Gradient error          =      0.0E+00
     Cell gradient error     =      1.9E-03


     number of scf cycles    =   1
     number of bfgs steps    =   0

     enthalpy new            =     -22.6621775876 Ry

     new trust radius        =       0.2389459899 bohr
     new conv_thr            =       0.0000000100 Ry

     new unit-cell volume =    679.56819 a.u.^3 (   100.70162 Ang^3 )
     density =      0.39611 g/cm^3

CELL_PARAMETERS (alat=  4.20000000)
   1.048031665   0.000000000   0.000000000
  -0.524015832   0.907622045   0.000000000
   0.000000000   0.000000000   9.642857143

ATOMIC_POSITIONS (crystal)
C             0.3333333333        0.6666666667        0.5000000000
C             0.6666666667        0.3333333333        0.5000000000



     Writing output data file ./work/LiC420.save/
     NEW-OLD atomic charge density approx. for the potential

     negative rho (up, down):  1.349E-04 0.000E+00
     extrapolated charge    8.71523, renormalised to    8.00000

     total cpu time spent up to now is        1.5 secs

     Self-consistent Calculation

     iteration #  1     ecut=    50.00 Ry     beta= 0.70
     Davidson diagonalization with overlap
     c_bands:  1 eigenvalues not converged
     c_bands:  1 eigenvalues not converged
     c_bands:  2 eigenvalues not converged
     c_bands:  3 eigenvalues not converged
     c_bands:  3 eigenvalues not converged
     c_bands:  4 eigenvalues not converged
     c_bands:  5 eigenvalues not converged
     c_bands:  2 eigenvalues not converged
     c_bands:  3 eigenvalues not converged
     c_bands:  3 eigenvalues not converged
     c_bands:  4 eigenvalues not converged
     c_bands:  4 eigenvalues not converged
     c_bands:  5 eigenvalues not converged
     c_bands:  5 eigenvalues not converged
     c_bands:  5 eigenvalues not converged
     c_bands:  3 eigenvalues not converged
     c_bands:  5 eigenvalues not converged
     c_bands:  5 eigenvalues not converged
     c_bands:  5 eigenvalues not converged
     c_bands:  4 eigenvalues not converged
     c_bands:  5 eigenvalues not converged
     c_bands:  5 eigenvalues not converged
     c_bands:  2 eigenvalues not converged
     ethr =  1.00E-06,  avg # of iterations = 24.0

     negative rho (up, down):  1.120E-05 0.000E+00

     total cpu time spent up to now is        2.4 secs

     total energy              =     704.27532678 Ry
     estimated scf accuracy    <     398.90095666 Ry

     iteration #  2     ecut=    50.00 Ry     beta= 0.70
     Davidson diagonalization with overlap
     c_bands:  5 eigenvalues not converged
     c_bands:  5 eigenvalues not converged
     c_bands:  1 eigenvalues not converged
     c_bands:  2 eigenvalues not converged
     c_bands:  2 eigenvalues not converged
     c_bands:  3 eigenvalues not converged
     c_bands:  3 eigenvalues not converged
     c_bands:  1 eigenvalues not converged
     c_bands:  5 eigenvalues not converged
     c_bands:  3 eigenvalues not converged
     c_bands:  3 eigenvalues not converged
     c_bands:  4 eigenvalues not converged
     c_bands:  4 eigenvalues not converged
     c_bands:  3 eigenvalues not converged
     c_bands:  4 eigenvalues not converged
     c_bands:  1 eigenvalues not converged
     c_bands:  5 eigenvalues not converged
     ethr =  1.00E-02,  avg # of iterations = 40.3

     negative rho (up, down):  4.961E-06 0.000E+00

     total cpu time spent up to now is        4.0 secs

     total energy              =    -156.38324428 Ry
     estimated scf accuracy    <     202.73733371 Ry

     iteration #  3     ecut=    50.00 Ry     beta= 0.70
     Davidson diagonalization with overlap
     ethr =  1.00E-02,  avg # of iterations =  5.8

     negative rho (up, down):  5.370E-07 0.000E+00

     total cpu time spent up to now is        4.2 secs

     total energy              =     -52.36475804 Ry
     estimated scf accuracy    <      70.12928905 Ry

     iteration #  4     ecut=    50.00 Ry     beta= 0.70
     Davidson diagonalization with overlap
     ethr =  1.00E-02,  avg # of iterations =  3.3

     negative rho (up, down):  1.012E-06 0.000E+00

     total cpu time spent up to now is        4.4 secs

     total energy              =     -56.11403309 Ry
     estimated scf accuracy    <      15.80370714 Ry

     iteration #  5     ecut=    50.00 Ry     beta= 0.70
     Davidson diagonalization with overlap
     ethr =  1.00E-02,  avg # of iterations =  1.0

     negative rho (up, down):  2.204E-08 0.000E+00

     total cpu time spent up to now is        4.5 secs

     total energy              =     -26.21021086 Ry
     estimated scf accuracy    <      17.59259760 Ry

     iteration #  6     ecut=    50.00 Ry     beta= 0.70
     Davidson diagonalization with overlap
     ethr =  1.00E-02,  avg # of iterations =  3.6

     negative rho (up, down):  5.775E-08 0.000E+00

     total cpu time spent up to now is        4.6 secs

     total energy              =     -31.39376712 Ry
     estimated scf accuracy    <       2.04923974 Ry

     iteration #  7     ecut=    50.00 Ry     beta= 0.70
     Davidson diagonalization with overlap
     ethr =  1.00E-02,  avg # of iterations =  1.0

     negative rho (up, down):  2.658E-08 0.000E+00

     total cpu time spent up to now is        4.7 secs

     total energy              =     -30.00331781 Ry
     estimated scf accuracy    <       4.57100782 Ry

     iteration #  8     ecut=    50.00 Ry     beta= 0.70
     Davidson diagonalization with overlap
     ethr =  1.00E-02,  avg # of iterations =  1.0

     negative rho (up, down):  2.638E-08 0.000E+00

     total cpu time spent up to now is        4.8 secs

     total energy              =     -30.00685172 Ry
     estimated scf accuracy    <       3.84862313 Ry

     iteration #  9     ecut=    50.00 Ry     beta= 0.70
     Davidson diagonalization with overlap
     ethr =  1.00E-02,  avg # of iterations =  1.0

     total cpu time spent up to now is        4.9 secs

     total energy              =     -25.05152483 Ry
     estimated scf accuracy    <       3.85009951 Ry

     iteration # 10     ecut=    50.00 Ry     beta= 0.70
     Davidson diagonalization with overlap
     ethr =  1.00E-02,  avg # of iterations =  1.8

     total cpu time spent up to now is        5.1 secs

     total energy              =     -22.60386781 Ry
     estimated scf accuracy    <       1.28627132 Ry

     iteration # 11     ecut=    50.00 Ry     beta= 0.70
     Davidson diagonalization with overlap
     ethr =  1.00E-02,  avg # of iterations =  6.0

     negative rho (up, down):  1.133E-03 0.000E+00

     total cpu time spent up to now is        5.3 secs

     total energy              =     -22.74052650 Ry
     estimated scf accuracy    <       0.13532078 Ry

     iteration # 12     ecut=    50.00 Ry     beta= 0.70
     Davidson diagonalization with overlap
     ethr =  1.69E-03,  avg # of iterations =  5.5

     negative rho (up, down):  3.649E-03 0.000E+00

     total cpu time spent up to now is        5.4 secs

     total energy              =     -22.73804212 Ry
     estimated scf accuracy    <       0.03487362 Ry

     iteration # 13     ecut=    50.00 Ry     beta= 0.70
     Davidson diagonalization with overlap
     ethr =  4.36E-04,  avg # of iterations =  3.7

     negative rho (up, down):  1.735E-03 0.000E+00

     total cpu time spent up to now is        5.6 secs

     total energy              =     -22.74283655 Ry
     estimated scf accuracy    <       0.04093883 Ry

     iteration # 14     ecut=    50.00 Ry     beta= 0.70
     Davidson diagonalization with overlap
     ethr =  4.36E-04,  avg # of iterations =  1.0

     negative rho (up, down):  1.822E-03 0.000E+00

     total cpu time spent up to now is        5.7 secs

     total energy              =     -22.83179444 Ry
     estimated scf accuracy    <       0.01136343 Ry

     iteration # 15     ecut=    50.00 Ry     beta= 0.70
     Davidson diagonalization with overlap
     ethr =  1.42E-04,  avg # of iterations =  8.7

     negative rho (up, down):  5.460E-03 0.000E+00

     total cpu time spent up to now is        5.9 secs

     total energy              =     -22.60201295 Ry
     estimated scf accuracy    <       0.90085837 Ry

     iteration # 16     ecut=    50.00 Ry     beta= 0.70
     Davidson diagonalization with overlap
     ethr =  1.42E-04,  avg # of iterations =  7.0

     negative rho (up, down):  5.094E-03 0.000E+00

     total cpu time spent up to now is        6.2 secs

     total energy              =     -22.74551386 Ry
     estimated scf accuracy    <       0.01591364 Ry

     iteration # 17     ecut=    50.00 Ry     beta= 0.70
     Davidson diagonalization with overlap
     ethr =  1.42E-04,  avg # of iterations =  1.0

     negative rho (up, down):  6.691E-03 0.000E+00

     total cpu time spent up to now is        6.3 secs

     total energy              =     -22.74636199 Ry
     estimated scf accuracy    <       0.00869525 Ry

     iteration # 18     ecut=    50.00 Ry     beta= 0.70
     Davidson diagonalization with overlap
     ethr =  1.09E-04,  avg # of iterations =  1.0

     negative rho (up, down):  1.051E-02 0.000E+00

     total cpu time spent up to now is        6.4 secs

     total energy              =     -22.74261493 Ry
     estimated scf accuracy    <       0.00954996 Ry

     iteration # 19     ecut=    50.00 Ry     beta= 0.70
     Davidson diagonalization with overlap
     ethr =  1.09E-04,  avg # of iterations =  5.5

     negative rho (up, down):  5.630E-03 0.000E+00

     total cpu time spent up to now is        6.6 secs

     total energy              =     -22.74308166 Ry
     estimated scf accuracy    <       0.00150150 Ry

     iteration # 20     ecut=    50.00 Ry     beta= 0.70
     Davidson diagonalization with overlap
     ethr =  1.88E-05,  avg # of iterations =  3.5

     negative rho (up, down):  2.465E-03 0.000E+00

     total cpu time spent up to now is        6.7 secs

     total energy              =     -22.74278860 Ry
     estimated scf accuracy    <       0.00091383 Ry

     iteration # 21     ecut=    50.00 Ry     beta= 0.70
     Davidson diagonalization with overlap
     ethr =  1.14E-05,  avg # of iterations =  5.1

     negative rho (up, down):  3.300E-03 0.000E+00

     total cpu time spent up to now is        6.9 secs

     total energy              =     -22.74279447 Ry
     estimated scf accuracy    <       0.00014344 Ry

     iteration # 22     ecut=    50.00 Ry     beta= 0.70
     Davidson diagonalization with overlap
     c_bands:  1 eigenvalues not converged
     ethr =  1.79E-06,  avg # of iterations =  7.7

     negative rho (up, down):  3.096E-03 0.000E+00

     total cpu time spent up to now is        7.1 secs

     total energy              =     -22.74279003 Ry
     estimated scf accuracy    <       0.00006221 Ry

     iteration # 23     ecut=    50.00 Ry     beta= 0.70
     Davidson diagonalization with overlap
     ethr =  7.78E-07,  avg # of iterations =  1.2

     negative rho (up, down):  3.614E-03 0.000E+00

     total cpu time spent up to now is        7.2 secs

     total energy              =     -22.74281691 Ry
     estimated scf accuracy    <       0.00004787 Ry

     iteration # 24     ecut=    50.00 Ry     beta= 0.70
     Davidson diagonalization with overlap
     ethr =  5.98E-07,  avg # of iterations =  3.7

     negative rho (up, down):  1.583E-05 0.000E+00

     total cpu time spent up to now is        7.3 secs

     total energy              =     -22.74269103 Ry
     estimated scf accuracy    <       0.00006278 Ry

     iteration # 25     ecut=    50.00 Ry     beta= 0.70
     Davidson diagonalization with overlap
     ethr =  5.98E-07,  avg # of iterations =  9.2

     total cpu time spent up to now is        7.6 secs

     total energy              =     -22.74269719 Ry
     estimated scf accuracy    <       0.00000002 Ry

     iteration # 26     ecut=    50.00 Ry     beta= 0.70
     Davidson diagonalization with overlap
     ethr =  2.73E-10,  avg # of iterations =  4.5

     total cpu time spent up to now is        7.7 secs

     total energy              =     -22.74269731 Ry
     estimated scf accuracy    <       0.00000002 Ry

     iteration # 27     ecut=    50.00 Ry     beta= 0.70
     Davidson diagonalization with overlap
     ethr =  2.73E-10,  avg # of iterations =  2.0

     total cpu time spent up to now is        7.9 secs

     End of self-consistent calculation

          k = 0.0000 0.0000 0.0000 (  3727 PWs)   bands (ev):

   -24.6839 -12.5696  -6.6653  -6.6653  -1.0142  -0.2128   0.5615   0.9192

          k =-0.0000 0.0735 0.0000 (  3725 PWs)   bands (ev):

   -24.5683 -12.4246  -7.1238  -6.9333  -0.8549  -0.0503   0.7245   1.0820

          k =-0.0000 0.1469 0.0000 (  3702 PWs)   bands (ev):

   -24.2222 -11.9944  -8.3430  -7.6026  -0.3765   0.4367   1.2138   1.5701

          k =-0.0000 0.2204 0.0000 (  3692 PWs)   bands (ev):

   -23.6477 -11.2867 -10.0302  -8.4307   0.4210   1.2462   2.0293   2.3816

          k =-0.0000 0.2938 0.0000 (  3674 PWs)   bands (ev):

   -22.8478 -11.9322 -10.3133  -9.2314   1.5358   2.3656   3.1707   3.4914

          k =-0.0000 0.3673 0.0000 (  3688 PWs)   bands (ev):

   -21.8298 -13.8811  -9.8951  -9.1121   1.9051   2.9634   3.8730   4.6338

          k =-0.0000 0.4407 0.0000 (  3718 PWs)   bands (ev):

   -20.6032 -15.7659 -10.3695  -7.7762  -0.1769   4.6813   5.5540   5.6298

          k =-0.0000 0.5142 0.0000 (  3702 PWs)   bands (ev):

   -19.1930 -17.5122 -10.6084  -6.6358  -1.7151   5.4270   6.7765   7.7023

          k = 0.0636 0.1102 0.0000 (  3699 PWs)   bands (ev):

   -24.3375 -12.1370  -7.8943  -7.4639  -0.5359   0.2745   1.0507   1.4075

          k = 0.0636 0.1836 0.0000 (  3693 PWs)   bands (ev):

   -23.8771 -11.5676  -9.2505  -8.3167   0.1026   0.9230   1.7033   2.0576

          k = 0.0636 0.2571 0.0000 (  3679 PWs)   bands (ev):

   -23.1900 -10.9838 -10.7255  -9.1901   1.0596   1.8916   2.6822   3.0285

          k = 0.0636 0.3305 0.0000 (  3686 PWs)   bands (ev):

   -22.2815 -12.8776  -9.9489  -9.6346   2.3322   2.8529   3.2994   3.9863

          k = 0.0636 0.4040 0.0000 (  3697 PWs)   bands (ev):

   -21.1591 -14.7800 -10.5266  -8.3477   0.7980   3.9140   4.8190   5.6050

          k = 0.0636 0.4774 0.0000 (  3712 PWs)   bands (ev):

   -19.8372 -16.5938 -10.8864  -7.0333  -1.0776   5.7232   6.0706   6.7320

          k = 0.0636 0.5509 0.0000 (  3692 PWs)   bands (ev):

   -18.5407 -18.0529 -11.0074  -6.3237  -1.9803   5.9248   7.9307   8.0769

          k = 0.1272 0.2204 0.0000 (  3687 PWs)   bands (ev):

   -23.3044 -10.8637 -10.4155  -9.4468   0.9013   1.7319   2.5195   2.8688

          k = 0.1272 0.2938 0.0000 (  3703 PWs)   bands (ev):

   -22.5086 -11.9447 -10.4753  -9.8993   2.0171   2.8531   3.6534   3.6618

          k = 0.1272 0.3673 0.0000 (  3699 PWs)   bands (ev):

   -21.4962 -13.7154 -11.2172  -8.7054   1.6392   3.4458   4.3129   5.1290

          k = 0.1272 0.4407 0.0000 (  3701 PWs)   bands (ev):

   -20.2783 -15.5176 -11.7064  -7.3694  -0.3067   5.1790   6.0526   6.9127

          k = 0.1272 0.5142 0.0000 (  3694 PWs)   bands (ev):

   -18.8859 -17.2163 -11.9518  -6.2067  -1.7980   7.1352   7.3724   8.0051

          k = 0.1908 0.3305 0.0000 (  3703 PWs)   bands (ev):

   -21.6090 -12.9870 -11.8480  -8.8276   2.0004   3.2889   4.1332   4.9670

          k = 0.1908 0.4040 0.0000 (  3699 PWs)   bands (ev):

   -20.5010 -14.4227 -12.7388  -7.5559   0.2549   4.8677   5.6872   6.5962

          k = 0.1908 0.4774 0.0000 (  3678 PWs)   bands (ev):

   -19.2040 -16.0635 -13.1690  -6.2214  -1.3951   6.7368   7.3477   8.5433

          k = 0.1908 0.5509 0.0000 (  3684 PWs)   bands (ev):

   -17.9741 -17.4245 -13.3041  -5.4470  -2.2832   8.1186   8.7638   8.9092

          k = 0.2544 0.4407 0.0000 (  3677 PWs)   bands (ev):

   -19.3129 -15.1703 -14.1004  -6.2445  -1.1853   6.5807   7.0741   8.3839

          k = 0.2544 0.5142 0.0000 (  3665 PWs)   bands (ev):

   -17.9820 -16.4218 -14.6660  -4.9746  -2.5158   7.4441   8.5325   9.9988

          k = 0.3181 0.5509 0.0000 (  3699 PWs)   bands (ev):

   -16.8471 -16.8471 -15.6086  -3.7147  -3.7147   7.1778  10.2234  10.2235

     the Fermi energy is    -3.7147 ev

!    total energy              =     -22.74269732 Ry
     estimated scf accuracy    <          5.2E-11 Ry
     smearing contrib. (-TS)   =      -0.00005015 Ry
     internal energy E=F+TS    =     -22.74264717 Ry

     The total energy is F=E-TS. E is the sum of the following terms:
     one-electron contribution =    -434.06151150 Ry
     hartree contribution      =     217.77731274 Ry
     xc contribution           =      -7.26378768 Ry
     ewald contribution        =     200.80533928 Ry

     convergence has been achieved in  27 iterations

     Forces acting on atoms (cartesian axes, Ry/au):

     atom    1 type  1   force =    -0.00000000   -0.00000000    0.00000000
     atom    2 type  1   force =     0.00000000    0.00000000    0.00000000

     Total force =     0.000000     Total SCF correction =     0.000000


     Computing stress (Cartesian axis) and pressure

          total   stress  (Ry/bohr**3)                   (kbar)     P=       65.89
   0.00074357  -0.00000000  -0.00000000          109.38       -0.00       -0.00
   0.00000000   0.00074357   0.00000000            0.00      109.38        0.00
   0.00000000   0.00000000  -0.00014335            0.00        0.00      -21.09

     Energy error            =      8.1E-02
     Gradient error          =      1.6E-26
     Cell gradient error     =      7.4E-04


     number of scf cycles    =   2
     number of bfgs steps    =   1

     enthalpy old            =     -22.6621775876 Ry
     enthalpy new            =     -22.7426973176 Ry

     CASE: enthalpy_new < enthalpy_old

     new trust radius        =       0.1630548329 bohr
     new conv_thr            =            1.0E-10 Ry

     new unit-cell volume =    722.73886 a.u.^3 (   107.09885 Ang^3 )
     density =      0.37245 g/cm^3

CELL_PARAMETERS (alat=  4.20000000)
   1.080808088   0.000000000   0.000000000
  -0.540404044   0.936007261   0.000000000
   0.000000000   0.000000000   9.642857143

ATOMIC_POSITIONS (crystal)
C             0.3333333333        0.6666666667        0.5000000000
C             0.6666666667        0.3333333333        0.5000000000



     Writing output data file ./work/LiC420.save/
     NEW-OLD atomic charge density approx. for the potential

     negative rho (up, down):  5.781E-05 0.000E+00
     extrapolated charge    8.47702, renormalised to    8.00000

     total cpu time spent up to now is        7.9 secs

     Self-consistent Calculation

     iteration #  1     ecut=    50.00 Ry     beta= 0.70
     Davidson diagonalization with overlap
     c_bands:  1 eigenvalues not converged
     c_bands:  1 eigenvalues not converged
     c_bands:  3 eigenvalues not converged
     c_bands:  3 eigenvalues not converged
     c_bands:  5 eigenvalues not converged
     c_bands:  1 eigenvalues not converged
     c_bands:  1 eigenvalues not converged
     c_bands:  3 eigenvalues not converged
     c_bands:  2 eigenvalues not converged
     c_bands:  2 eigenvalues not converged
     c_bands:  3 eigenvalues not converged
     c_bands:  3 eigenvalues not converged
     c_bands:  1 eigenvalues not converged
     c_bands:  2 eigenvalues not converged
     c_bands:  3 eigenvalues not converged
     c_bands:  4 eigenvalues not converged
     c_bands:  5 eigenvalues not converged
     c_bands:  2 eigenvalues not converged
     c_bands:  4 eigenvalues not converged
     c_bands:  4 eigenvalues not converged
     c_bands:  5 eigenvalues not converged
     c_bands:  5 eigenvalues not converged
     c_bands:  5 eigenvalues not converged
     ethr =  1.00E-06,  avg # of iterations = 20.1

     negative rho (up, down):  5.713E-07 0.000E+00

     total cpu time spent up to now is        8.7 secs

     total energy              =     624.47337101 Ry
     estimated scf accuracy    <     359.01686097 Ry

     iteration #  2     ecut=    50.00 Ry     beta= 0.70
     Davidson diagonalization with overlap
     c_bands:  2 eigenvalues not converged
     c_bands:  2 eigenvalues not converged
     c_bands:  1 eigenvalues not converged
     c_bands:  3 eigenvalues not converged
     c_bands:  5 eigenvalues not converged
     c_bands:  3 eigenvalues not converged
     c_bands:  3 eigenvalues not converged
     c_bands:  1 eigenvalues not converged
     c_bands:  2 eigenvalues not converged
     c_bands:  3 eigenvalues not converged
     c_bands:  2 eigenvalues not converged
     c_bands:  3 eigenvalues not converged
     ethr =  1.00E-02,  avg # of iterations = 38.2

     negative rho (up, down):  1.150E-07 0.000E+00

     total cpu time spent up to now is       10.1 secs

     total energy              =    -141.77876063 Ry
     estimated scf accuracy    <     182.83205802 Ry

     iteration #  3     ecut=    50.00 Ry     beta= 0.70
     Davidson diagonalization with overlap
     c_bands:  2 eigenvalues not converged
     ethr =  1.00E-02,  avg # of iterations =  5.3

     total cpu time spent up to now is       10.3 secs

     total energy              =     -51.55505891 Ry
     estimated scf accuracy    <      63.19514437 Ry

     iteration #  4     ecut=    50.00 Ry     beta= 0.70
     Davidson diagonalization with overlap
     ethr =  1.00E-02,  avg # of iterations =  3.9

     total cpu time spent up to now is       10.5 secs

     total energy              =     -50.15140939 Ry
     estimated scf accuracy    <      15.48792025 Ry

     iteration #  5     ecut=    50.00 Ry     beta= 0.70
     Davidson diagonalization with overlap
     ethr =  1.00E-02,  avg # of iterations =  1.0

     total cpu time spent up to now is       10.6 secs

     total energy              =     -25.33970434 Ry
     estimated scf accuracy    <      14.57538271 Ry

     iteration #  6     ecut=    50.00 Ry     beta= 0.70
     Davidson diagonalization with overlap
     ethr =  1.00E-02,  avg # of iterations =  3.7

     total cpu time spent up to now is       10.7 secs

     total energy              =     -33.60731345 Ry
     estimated scf accuracy    <       1.54545517 Ry

     iteration #  7     ecut=    50.00 Ry     beta= 0.70
     Davidson diagonalization with overlap
     ethr =  1.00E-02,  avg # of iterations =  1.5

     total cpu time spent up to now is       10.9 secs

     total energy              =     -35.43635060 Ry
     estimated scf accuracy    <       5.74201328 Ry

     iteration #  8     ecut=    50.00 Ry     beta= 0.70
     Davidson diagonalization with overlap
     ethr =  1.00E-02,  avg # of iterations =  1.0

     total cpu time spent up to now is       11.0 secs

     total energy              =     -26.75466598 Ry
     estimated scf accuracy    <       6.68933295 Ry

     iteration #  9     ecut=    50.00 Ry     beta= 0.70
     Davidson diagonalization with overlap
     ethr =  1.00E-02,  avg # of iterations =  1.3

     total cpu time spent up to now is       11.1 secs

     total energy              =     -22.74421507 Ry
     estimated scf accuracy    <       2.21112218 Ry

     iteration # 10     ecut=    50.00 Ry     beta= 0.70
     Davidson diagonalization with overlap
     ethr =  1.00E-02,  avg # of iterations =  2.6

     negative rho (up, down):  3.531E-04 0.000E+00

     total cpu time spent up to now is       11.2 secs

     total energy              =     -22.74489150 Ry
     estimated scf accuracy    <       0.06403208 Ry

     iteration # 11     ecut=    50.00 Ry     beta= 0.70
     Davidson diagonalization with overlap
     ethr =  8.00E-04,  avg # of iterations = 10.5

     negative rho (up, down):  7.829E-04 0.000E+00

     total cpu time spent up to now is       11.5 secs

     total energy              =     -22.76458805 Ry
     estimated scf accuracy    <       0.03029521 Ry

     iteration # 12     ecut=    50.00 Ry     beta= 0.70
     Davidson diagonalization with overlap
     ethr =  3.79E-04,  avg # of iterations =  1.4

     negative rho (up, down):  1.641E-03 0.000E+00

     total cpu time spent up to now is       11.6 secs

     total energy              =     -22.76084559 Ry
     estimated scf accuracy    <       0.01220528 Ry

     iteration # 13     ecut=    50.00 Ry     beta= 0.70
     Davidson diagonalization with overlap
     ethr =  1.53E-04,  avg # of iterations =  2.4

     negative rho (up, down):  2.790E-03 0.000E+00

     total cpu time spent up to now is       11.7 secs

     total energy              =     -22.76271800 Ry
     estimated scf accuracy    <       0.00344012 Ry

     iteration # 14     ecut=    50.00 Ry     beta= 0.70
     Davidson diagonalization with overlap
     ethr =  4.30E-05,  avg # of iterations =  2.4

     negative rho (up, down):  5.712E-03 0.000E+00

     total cpu time spent up to now is       11.8 secs

     total energy              =     -22.76339125 Ry
     estimated scf accuracy    <       0.00479285 Ry

     iteration # 15     ecut=    50.00 Ry     beta= 0.70
     Davidson diagonalization with overlap
     ethr =  4.30E-05,  avg # of iterations =  1.5

     negative rho (up, down):  6.418E-03 0.000E+00

     total cpu time spent up to now is       11.9 secs

     total energy              =     -22.76429030 Ry
     estimated scf accuracy    <       0.00541601 Ry

     iteration # 16     ecut=    50.00 Ry     beta= 0.70
     Davidson diagonalization with overlap
     ethr =  4.30E-05,  avg # of iterations =  1.1

     negative rho (up, down):  5.948E-03 0.000E+00

     total cpu time spent up to now is       12.0 secs

     total energy              =     -22.76460032 Ry
     estimated scf accuracy    <       0.00756629 Ry

     iteration # 17     ecut=    50.00 Ry     beta= 0.70
     Davidson diagonalization with overlap
     ethr =  4.30E-05,  avg # of iterations =  1.0

     negative rho (up, down):  5.933E-03 0.000E+00

     total cpu time spent up to now is       12.2 secs

     total energy              =     -22.76264043 Ry
     estimated scf accuracy    <       0.00820870 Ry

     iteration # 18     ecut=    50.00 Ry     beta= 0.70
     Davidson diagonalization with overlap
     ethr =  4.30E-05,  avg # of iterations =  1.7

     negative rho (up, down):  2.240E-04 0.000E+00

     total cpu time spent up to now is       12.3 secs

     total energy              =     -22.76233550 Ry
     estimated scf accuracy    <       0.00426900 Ry

     iteration # 19     ecut=    50.00 Ry     beta= 0.70
     Davidson diagonalization with overlap
     ethr =  4.30E-05,  avg # of iterations =  5.1

     negative rho (up, down):  6.629E-05 0.000E+00

     total cpu time spent up to now is       12.4 secs

     total energy              =     -22.76138372 Ry
     estimated scf accuracy    <       0.00234989 Ry

     iteration # 20     ecut=    50.00 Ry     beta= 0.70
     Davidson diagonalization with overlap
     ethr =  2.94E-05,  avg # of iterations =  5.0

     negative rho (up, down):  3.582E-05 0.000E+00

     total cpu time spent up to now is       12.6 secs

     total energy              =     -22.76153183 Ry
     estimated scf accuracy    <       0.00017617 Ry

     iteration # 21     ecut=    50.00 Ry     beta= 0.70
     Davidson diagonalization with overlap
     c_bands:  1 eigenvalues not converged
     c_bands:  1 eigenvalues not converged
     c_bands:  1 eigenvalues not converged
     ethr =  2.20E-06,  avg # of iterations =  6.8

     total cpu time spent up to now is       12.8 secs

     total energy              =     -22.76156345 Ry
     estimated scf accuracy    <       0.00000737 Ry

     iteration # 22     ecut=    50.00 Ry     beta= 0.70
     Davidson diagonalization with overlap
     ethr =  9.21E-08,  avg # of iterations =  2.7

     total cpu time spent up to now is       12.9 secs

     total energy              =     -22.76156371 Ry
     estimated scf accuracy    <       0.00000050 Ry

     iteration # 23     ecut=    50.00 Ry     beta= 0.70
     Davidson diagonalization with overlap
     ethr =  6.21E-09,  avg # of iterations =  2.3

     total cpu time spent up to now is       13.1 secs

     total energy              =     -22.76156384 Ry
     estimated scf accuracy    <       0.00000002 Ry

     iteration # 24     ecut=    50.00 Ry     beta= 0.70
     Davidson diagonalization with overlap
     ethr =  2.02E-10,  avg # of iterations =  2.9

     total cpu time spent up to now is       13.2 secs

     End of self-consistent calculation

          k = 0.0000 0.0000 0.0000 (  3727 PWs)   bands (ev):

   -24.2228 -12.1927  -7.0053  -7.0053  -0.9998  -0.2144   0.5582   0.9166

          k =-0.0000 0.0712 0.0000 (  3725 PWs)   bands (ev):

   -24.1129 -12.0578  -7.4472  -7.2493  -0.8497  -0.0617   0.7116   1.0696

          k =-0.0000 0.1424 0.0000 (  3702 PWs)   bands (ev):

   -23.7838 -11.6581  -8.6180  -7.8602  -0.3993   0.3955   1.1716   1.5278

          k =-0.0000 0.2137 0.0000 (  3692 PWs)   bands (ev):

   -23.2376 -11.0012 -10.2323  -8.6192   0.3511   1.1552   1.9384   2.2894

          k =-0.0000 0.2849 0.0000 (  3674 PWs)   bands (ev):

   -22.4774 -12.0488 -10.0985  -9.3572   1.3997   2.1979   3.0108   3.2048

          k =-0.0000 0.3561 0.0000 (  3688 PWs)   bands (ev):

   -21.5114 -13.9055  -9.9709  -8.9875   1.2279   2.7405   3.6120   4.3370

          k =-0.0000 0.4273 0.0000 (  3718 PWs)   bands (ev):

   -20.3521 -15.6928 -10.4126  -7.7580  -0.6728   4.1633   4.4786   5.2647

          k =-0.0000 0.4986 0.0000 (  3702 PWs)   bands (ev):

   -19.0522 -17.3119 -10.6341  -6.7189  -2.0675   4.1450   6.3145   7.2033

          k = 0.0617 0.1068 0.0000 (  3699 PWs)   bands (ev):

   -23.8933 -11.7906  -8.1899  -7.7326  -0.5494   0.2432   1.0183   1.3751

          k = 0.0617 0.1781 0.0000 (  3693 PWs)   bands (ev):

   -23.4557 -11.2617  -9.4948  -8.5166   0.0514   0.8520   1.6319   1.9855

          k = 0.0617 0.2493 0.0000 (  3679 PWs)   bands (ev):

   -22.8025 -11.1501 -10.4804  -9.3256   0.9517   1.7607   2.5521   2.8950

          k = 0.0617 0.3205 0.0000 (  3686 PWs)   bands (ev):

   -21.9397 -12.9539 -10.0312  -9.4702   2.1392   2.1483   3.0159   3.7770

          k = 0.0617 0.3917 0.0000 (  3697 PWs)   bands (ev):

   -20.8762 -14.7613 -10.5700  -8.2822   0.2066   3.6317   4.5035   4.8259

          k = 0.0617 0.4630 0.0000 (  3712 PWs)   bands (ev):

   -19.6343 -16.4712 -10.9063  -7.0774  -1.4994   4.6566   5.4455   6.2949

          k = 0.0617 0.5342 0.0000 (  3692 PWs)   bands (ev):

   -18.5419 -17.7165 -11.0194  -6.4345  -2.3143   4.6216   7.3944   7.5482

          k = 0.1234 0.2137 0.0000 (  3687 PWs)   bands (ev):

   -22.9112 -10.6308 -10.6084  -9.5555   0.8026   1.6112   2.3992   2.7471

          k = 0.1234 0.2849 0.0000 (  3703 PWs)   bands (ev):

   -22.1553 -12.0921 -10.5199  -9.7148   1.8518   2.6365   2.8104   3.4730

          k = 0.1234 0.3561 0.0000 (  3699 PWs)   bands (ev):

   -21.1949 -13.7655 -11.2273  -8.6108   0.9488   3.1948   4.0289   4.8513

          k = 0.1234 0.4273 0.0000 (  3701 PWs)   bands (ev):

   -20.0442 -15.4664 -11.6934  -7.3809  -0.8227   4.8206   5.6562   6.0533

          k = 0.1234 0.4986 0.0000 (  3694 PWs)   bands (ev):

   -18.7613 -17.0365 -11.9269  -6.3202  -2.1749   5.9391   6.7429   7.4621

          k = 0.1850 0.3205 0.0000 (  3703 PWs)   bands (ev):

   -21.3017 -13.1267 -11.7808  -8.7231   1.2603   3.0472   3.8625   4.6997

          k = 0.1850 0.3917 0.0000 (  3699 PWs)   bands (ev):

   -20.2528 -14.4754 -12.6396  -7.5497  -0.3385   4.5303   5.3136   6.2303

          k = 0.1850 0.4630 0.0000 (  3678 PWs)   bands (ev):

   -19.0356 -15.9952 -13.0708  -6.3242  -1.8444   6.2823   6.8459   7.7843

          k = 0.1850 0.5342 0.0000 (  3684 PWs)   bands (ev):

   -17.9866 -17.1617 -13.2061  -5.6204  -2.6495   7.5433   7.7169   8.1611

          k = 0.2467 0.4273 0.0000 (  3677 PWs)   bands (ev):

   -19.1336 -15.2496 -13.8637  -6.3418  -1.6721   6.1367   6.5948   7.9083

          k = 0.2467 0.4986 0.0000 (  3665 PWs)   bands (ev):

   -17.9084 -16.3755 -14.4258  -5.1766  -2.8963   6.9548   7.9523   9.4006

          k = 0.3084 0.5342 0.0000 (  3699 PWs)   bands (ev):

   -16.8847 -16.8847 -15.1675  -4.0129  -4.0129   6.7286   9.4013   9.4014

     the Fermi energy is    -4.0129 ev

!    total energy              =     -22.76156385 Ry
     estimated scf accuracy    <          9.5E-11 Ry
     smearing contrib. (-TS)   =      -0.00005015 Ry
     internal energy E=F+TS    =     -22.76151370 Ry

     The total energy is F=E-TS. E is the sum of the following terms:
     one-electron contribution =    -407.78588787 Ry
     hartree contribution      =     204.56714529 Ry
     xc contribution           =      -7.12316173 Ry
     ewald contribution        =     187.58039061 Ry

     convergence has been achieved in  24 iterations

     Forces acting on atoms (cartesian axes, Ry/au):

     atom    1 type  1   force =     0.00000000    0.00000000    0.00000000
     atom    2 type  1   force =    -0.00000000   -0.00000000    0.00000000

     Total force =     0.000000     Total SCF correction =     0.000000


     Computing stress (Cartesian axis) and pressure

          total   stress  (Ry/bohr**3)                   (kbar)     P=        8.50
   0.00015894  -0.00000000   0.00000000           23.38       -0.00        0.00
  -0.00000000   0.00015894  -0.00000000           -0.00       23.38       -0.00
   0.00000000  -0.00000000  -0.00014452            0.00       -0.00      -21.26

     Energy error            =      1.9E-02
     Gradient error          =      1.6E-26
     Cell gradient error     =      1.6E-04


     number of scf cycles    =   3
     number of bfgs steps    =   2

     enthalpy old            =     -22.7426973176 Ry
     enthalpy new            =     -22.7615638454 Ry

     CASE: enthalpy_new < enthalpy_old

     new trust radius        =       0.0461078617 bohr
     new conv_thr            =            1.0E-10 Ry

     new unit-cell volume =    735.18756 a.u.^3 (   108.94356 Ang^3 )
     density =      0.36614 g/cm^3

CELL_PARAMETERS (alat=  4.20000000)
   1.090076448   0.000000000   0.000000000
  -0.545038224   0.944033896   0.000000000
   0.000000000   0.000000000   9.642857143

ATOMIC_POSITIONS (crystal)
C             0.3333333333        0.6666666667        0.5000000000
C             0.6666666667        0.3333333333        0.5000000000



     Writing output data file ./work/LiC420.save/
     NEW-OLD atomic charge density approx. for the potential

     negative rho (up, down):  1.585E-05 0.000E+00
     extrapolated charge    8.13523, renormalised to    8.00000

     total cpu time spent up to now is       13.2 secs

     Self-consistent Calculation

     iteration #  1     ecut=    50.00 Ry     beta= 0.70
     Davidson diagonalization with overlap
     c_bands:  1 eigenvalues not converged
     c_bands:  1 eigenvalues not converged
     c_bands:  2 eigenvalues not converged
     c_bands:  2 eigenvalues not converged
     ethr =  1.00E-06,  avg # of iterations = 13.9

     total cpu time spent up to now is       13.7 secs

     total energy              =      75.05617412 Ry
     estimated scf accuracy    <      56.53094097 Ry

     iteration #  2     ecut=    50.00 Ry     beta= 0.70
     Davidson diagonalization with overlap
     c_bands:  3 eigenvalues not converged
     c_bands:  2 eigenvalues not converged
     c_bands:  1 eigenvalues not converged
     c_bands:  2 eigenvalues not converged
     c_bands:  3 eigenvalues not converged
     c_bands:  1 eigenvalues not converged
     c_bands:  1 eigenvalues not converged
     c_bands:  1 eigenvalues not converged
     c_bands:  3 eigenvalues not converged
     c_bands:  1 eigenvalues not converged
     c_bands:  2 eigenvalues not converged
     ethr =  1.00E-02,  avg # of iterations = 17.8

     total cpu time spent up to now is       14.2 secs

     total energy              =     -40.58249788 Ry
     estimated scf accuracy    <      29.74166245 Ry

     iteration #  3     ecut=    50.00 Ry     beta= 0.70
     Davidson diagonalization with overlap
     ethr =  1.00E-02,  avg # of iterations =  3.6

     total cpu time spent up to now is       14.3 secs

     total energy              =     -29.31080653 Ry
     estimated scf accuracy    <      10.10634973 Ry

     iteration #  4     ecut=    50.00 Ry     beta= 0.70
     Davidson diagonalization with overlap
     ethr =  1.00E-02,  avg # of iterations =  2.4

     total cpu time spent up to now is       14.4 secs

     total energy              =     -26.18800444 Ry
     estimated scf accuracy    <       3.70685569 Ry

     iteration #  5     ecut=    50.00 Ry     beta= 0.70
     Davidson diagonalization with overlap
     ethr =  1.00E-02,  avg # of iterations =  1.5

     total cpu time spent up to now is       14.5 secs

     total energy              =     -25.78488989 Ry
     estimated scf accuracy    <       1.95795573 Ry

     iteration #  6     ecut=    50.00 Ry     beta= 0.70
     Davidson diagonalization with overlap
     ethr =  1.00E-02,  avg # of iterations =  1.2

     total cpu time spent up to now is       14.6 secs

     total energy              =     -24.20286919 Ry
     estimated scf accuracy    <       1.71101131 Ry

     iteration #  7     ecut=    50.00 Ry     beta= 0.70
     Davidson diagonalization with overlap
     ethr =  1.00E-02,  avg # of iterations =  1.2

     total cpu time spent up to now is       14.7 secs

     total energy              =     -23.66287090 Ry
     estimated scf accuracy    <       0.82064046 Ry

     iteration #  8     ecut=    50.00 Ry     beta= 0.70
     Davidson diagonalization with overlap
     ethr =  1.00E-02,  avg # of iterations =  1.2

     total cpu time spent up to now is       14.9 secs

     total energy              =     -23.31498836 Ry
     estimated scf accuracy    <       0.51756882 Ry

     iteration #  9     ecut=    50.00 Ry     beta= 0.70
     Davidson diagonalization with overlap
     ethr =  6.47E-03,  avg # of iterations =  2.1

     total cpu time spent up to now is       15.0 secs

     total energy              =     -23.51841047 Ry
     estimated scf accuracy    <       0.31616818 Ry

     iteration # 10     ecut=    50.00 Ry     beta= 0.70
     Davidson diagonalization with overlap
     ethr =  3.95E-03,  avg # of iterations =  1.4

     negative rho (up, down):  1.340E-04 0.000E+00

     total cpu time spent up to now is       15.1 secs

     total energy              =     -22.74078978 Ry
     estimated scf accuracy    <       0.42776698 Ry

     iteration # 11     ecut=    50.00 Ry     beta= 0.70
     Davidson diagonalization with overlap
     ethr =  3.95E-03,  avg # of iterations =  6.5

     negative rho (up, down):  1.609E-04 0.000E+00

     total cpu time spent up to now is       15.3 secs

     total energy              =     -22.76386949 Ry
     estimated scf accuracy    <       0.00549692 Ry

     iteration # 12     ecut=    50.00 Ry     beta= 0.70
     Davidson diagonalization with overlap
     ethr =  6.87E-05,  avg # of iterations =  9.2

     negative rho (up, down):  7.953E-06 0.000E+00

     total cpu time spent up to now is       15.5 secs

     total energy              =     -22.76257015 Ry
     estimated scf accuracy    <       0.00324701 Ry

     iteration # 13     ecut=    50.00 Ry     beta= 0.70
     Davidson diagonalization with overlap
     ethr =  4.06E-05,  avg # of iterations =  2.9

     negative rho (up, down):  9.354E-06 0.000E+00

     total cpu time spent up to now is       15.6 secs

     total energy              =     -22.76286440 Ry
     estimated scf accuracy    <       0.00049585 Ry

     iteration # 14     ecut=    50.00 Ry     beta= 0.70
     Davidson diagonalization with overlap
     ethr =  6.20E-06,  avg # of iterations =  4.1

     negative rho (up, down):  4.944E-06 0.000E+00

     total cpu time spent up to now is       15.8 secs

     total energy              =     -22.76329230 Ry
     estimated scf accuracy    <       0.00059331 Ry

     iteration # 15     ecut=    50.00 Ry     beta= 0.70
     Davidson diagonalization with overlap
     ethr =  6.20E-06,  avg # of iterations =  2.7

     negative rho (up, down):  8.361E-06 0.000E+00

     total cpu time spent up to now is       15.9 secs

     total energy              =     -22.76349259 Ry
     estimated scf accuracy    <       0.00156355 Ry

     iteration # 16     ecut=    50.00 Ry     beta= 0.70
     Davidson diagonalization with overlap
     ethr =  6.20E-06,  avg # of iterations =  1.1

     negative rho (up, down):  1.432E-05 0.000E+00

     total cpu time spent up to now is       16.0 secs

     total energy              =     -22.76480341 Ry
     estimated scf accuracy    <       0.00193032 Ry

     iteration # 17     ecut=    50.00 Ry     beta= 0.70
     Davidson diagonalization with overlap
     ethr =  6.20E-06,  avg # of iterations =  4.4

     negative rho (up, down):  6.045E-05 0.000E+00

     total cpu time spent up to now is       16.2 secs

     total energy              =     -22.76640021 Ry
     estimated scf accuracy    <       0.00520195 Ry

     iteration # 18     ecut=    50.00 Ry     beta= 0.70
     Davidson diagonalization with overlap
     ethr =  6.20E-06,  avg # of iterations =  5.0

     negative rho (up, down):  1.726E-08 0.000E+00

     total cpu time spent up to now is       16.3 secs

     total energy              =     -22.76147883 Ry
     estimated scf accuracy    <       0.00879452 Ry

     iteration # 19     ecut=    50.00 Ry     beta= 0.70
     Davidson diagonalization with overlap
     ethr =  6.20E-06,  avg # of iterations =  8.6

     total cpu time spent up to now is       16.6 secs

     total energy              =     -22.76264997 Ry
     estimated scf accuracy    <       0.00003381 Ry

     iteration # 20     ecut=    50.00 Ry     beta= 0.70
     Davidson diagonalization with overlap
     ethr =  4.23E-07,  avg # of iterations =  4.4

     total cpu time spent up to now is       16.7 secs

     total energy              =     -22.76266313 Ry
     estimated scf accuracy    <       0.00000413 Ry

     iteration # 21     ecut=    50.00 Ry     beta= 0.70
     Davidson diagonalization with overlap
     ethr =  5.17E-08,  avg # of iterations =  2.3

     total cpu time spent up to now is       16.9 secs

     total energy              =     -22.76266380 Ry
     estimated scf accuracy    <       0.00000005 Ry

     iteration # 22     ecut=    50.00 Ry     beta= 0.70
     Davidson diagonalization with overlap
     ethr =  5.75E-10,  avg # of iterations =  3.8

     total cpu time spent up to now is       17.0 secs

     total energy              =     -22.76266384 Ry
     estimated scf accuracy    <          6.5E-09 Ry

     iteration # 23     ecut=    50.00 Ry     beta= 0.70
     Davidson diagonalization with overlap
     ethr =  8.11E-11,  avg # of iterations =  2.1

     total cpu time spent up to now is       17.2 secs

     total energy              =     -22.76266384 Ry
     estimated scf accuracy    <          2.8E-10 Ry

     iteration # 24     ecut=    50.00 Ry     beta= 0.70
     Davidson diagonalization with overlap
     ethr =  3.51E-12,  avg # of iterations =  2.4

     total cpu time spent up to now is       17.3 secs

     End of self-consistent calculation

          k = 0.0000 0.0000 0.0000 (  3727 PWs)   bands (ev):

   -24.0947 -12.0913  -7.0900  -7.0900  -0.9954  -0.2144   0.5606   0.9195

          k =-0.0000 0.0706 0.0000 (  3725 PWs)   bands (ev):

   -23.9863 -11.9591  -7.5278  -7.3277  -0.8478  -0.0644   0.7113   1.0698

          k =-0.0000 0.1412 0.0000 (  3702 PWs)   bands (ev):

   -23.6618 -11.5676  -8.6864  -7.9233  -0.4049   0.3849   1.1636   1.5201

          k =-0.0000 0.2119 0.0000 (  3692 PWs)   bands (ev):

   -23.1234 -10.9242 -10.2818  -8.6640   0.3330   1.1314   1.9174   2.2684

          k =-0.0000 0.2825 0.0000 (  3674 PWs)   bands (ev):

   -22.3742 -12.0757 -10.0404  -9.3854   1.3640   2.1515   2.9713   3.0259

          k =-0.0000 0.3531 0.0000 (  3688 PWs)   bands (ev):

   -21.4226 -13.9073  -9.9859  -8.9534   1.0464   2.6814   3.5435   4.0949

          k =-0.0000 0.4237 0.0000 (  3718 PWs)   bands (ev):

   -20.2824 -15.6676 -10.4190  -7.7522  -0.8054   3.8725   4.3443   5.1675

          k =-0.0000 0.4943 0.0000 (  3702 PWs)   bands (ev):

   -19.0147 -17.2498 -10.6358  -6.7398  -2.1622   3.8030   6.1932   7.0703

          k = 0.0612 0.1059 0.0000 (  3699 PWs)   bands (ev):

   -23.7699 -11.6972  -8.2637  -7.7985  -0.5524   0.2353   1.0128   1.3701

          k = 0.0612 0.1765 0.0000 (  3693 PWs)   bands (ev):

   -23.3384 -11.1793  -9.5555  -8.5643   0.0384   0.8335   1.6161   1.9698

          k = 0.0612 0.2472 0.0000 (  3679 PWs)   bands (ev):

   -22.6946 -11.1905 -10.4142  -9.3562   0.9235   1.7257   2.5205   2.8626

          k = 0.0612 0.3178 0.0000 (  3686 PWs)   bands (ev):

   -21.8445 -12.9701 -10.0476  -9.4255   1.9359   2.0998   2.9529   3.7241

          k = 0.0612 0.3884 0.0000 (  3697 PWs)   bands (ev):

   -20.7974 -14.7515 -10.5760  -8.2638   0.0487   3.5559   4.4199   4.4947

          k = 0.0612 0.4590 0.0000 (  3712 PWs)   bands (ev):

   -19.5785 -16.4320 -10.9062  -7.0880  -1.6122   4.3177   5.3342   6.1786

          k = 0.0612 0.5296 0.0000 (  3692 PWs)   bands (ev):

   -18.5356 -17.6251 -11.0172  -6.4626  -2.4040   4.2745   7.2521   7.4080

          k = 0.1223 0.2119 0.0000 (  3687 PWs)   bands (ev):

   -22.8017 -10.6840 -10.5395  -9.5791   0.7769   1.5794   2.3703   2.7181

          k = 0.1223 0.2825 0.0000 (  3703 PWs)   bands (ev):

   -22.0568 -12.1278 -10.5257  -9.6647   1.8083   2.5063   2.6583   3.4257

          k = 0.1223 0.3531 0.0000 (  3699 PWs)   bands (ev):

   -21.1108 -13.7753 -11.2235  -8.5847   0.7652   3.1285   3.9537   4.7802

          k = 0.1223 0.4237 0.0000 (  3701 PWs)   bands (ev):

   -19.9790 -15.4482 -11.6834  -7.3829  -0.9600   4.7250   5.5508   5.7046

          k = 0.1223 0.4943 0.0000 (  3694 PWs)   bands (ev):

   -18.7277 -16.9816 -11.9137  -6.3492  -2.2756   5.5834   6.6116   7.3172

          k = 0.1835 0.3178 0.0000 (  3703 PWs)   bands (ev):

   -21.2159 -13.1597 -11.7571  -8.6944   1.0641   2.9834   3.7904   4.6315

          k = 0.1835 0.3884 0.0000 (  3699 PWs)   bands (ev):

   -20.1835 -14.4865 -12.6052  -7.5472  -0.4957   4.4410   5.2144   6.1357

          k = 0.1835 0.4590 0.0000 (  3678 PWs)   bands (ev):

   -18.9889 -15.9735 -13.0358  -6.3505  -1.9635   6.1613   6.7127   7.4209

          k = 0.1835 0.5296 0.0000 (  3684 PWs)   bands (ev):

   -17.9836 -17.0925 -13.1711  -5.6652  -2.7468   7.3469   7.3917   8.0000

          k = 0.2446 0.4237 0.0000 (  3677 PWs)   bands (ev):

   -19.0835 -15.2659 -13.7935  -6.3667  -1.8007   6.0190   6.4677   7.7423

          k = 0.2446 0.4943 0.0000 (  3665 PWs)   bands (ev):

   -17.8872 -16.3620 -14.3501  -5.2292  -2.9967   6.8256   7.7968   9.2416

          k = 0.3058 0.5296 0.0000 (  3699 PWs)   bands (ev):

   -16.8891 -16.8891 -15.0467  -4.0911  -4.0911   6.6099   9.1697   9.1697

     the Fermi energy is    -4.0911 ev

!    total energy              =     -22.76266384 Ry
     estimated scf accuracy    <          1.7E-11 Ry
     smearing contrib. (-TS)   =      -0.00005015 Ry
     internal energy E=F+TS    =     -22.76261369 Ry

     The total energy is F=E-TS. E is the sum of the following terms:
     one-electron contribution =    -400.79035147 Ry
     hartree contribution      =     201.05075022 Ry
     xc contribution           =      -7.08511923 Ry
     ewald contribution        =     184.06210678 Ry

     convergence has been achieved in  24 iterations

     Forces acting on atoms (cartesian axes, Ry/au):

     atom    1 type  1   force =    -0.00000000   -0.00000000    0.00000000
     atom    2 type  1   force =     0.00000000    0.00000000    0.00000000

     Total force =     0.000000     Total SCF correction =     0.000000


     Computing stress (Cartesian axis) and pressure

          total   stress  (Ry/bohr**3)                   (kbar)     P=       -5.17
   0.00001974  -0.00000000   0.00000000            2.90       -0.00        0.00
   0.00000000   0.00001974   0.00000000            0.00        2.90        0.00
   0.00000000   0.00000000  -0.00014482            0.00        0.00      -21.30

     Energy error            =      1.1E-03
     Gradient error          =      1.6E-26
     Cell gradient error     =      2.0E-05


     number of scf cycles    =   4
     number of bfgs steps    =   3

     enthalpy old            =     -22.7615638454 Ry
     enthalpy new            =     -22.7626638415 Ry

     CASE: enthalpy_new < enthalpy_old

     new trust radius        =       0.0066031850 bohr
     new conv_thr            =            1.0E-10 Ry

     new unit-cell volume =    736.97906 a.u.^3 (   109.20903 Ang^3 )
     density =      0.36525 g/cm^3

CELL_PARAMETERS (alat=  4.20000000)
   1.091403785   0.000000000   0.000000000
  -0.545701893   0.945183404   0.000000000
   0.000000000   0.000000000   9.642857143

ATOMIC_POSITIONS (crystal)
C             0.3333333333        0.6666666667        0.5000000000
C             0.6666666667        0.3333333333        0.5000000000



     Writing output data file ./work/LiC420.save/
     NEW-OLD atomic charge density approx. for the potential

     negative rho (up, down):  1.625E-07 0.000E+00
     extrapolated charge    8.01941, renormalised to    8.00000

     total cpu time spent up to now is       17.3 secs

     Self-consistent Calculation

     iteration #  1     ecut=    50.00 Ry     beta= 0.70
     Davidson diagonalization with overlap
     c_bands:  2 eigenvalues not converged
     c_bands:  1 eigenvalues not converged
     c_bands:  1 eigenvalues not converged
     c_bands:  1 eigenvalues not converged
     ethr =  1.00E-06,  avg # of iterations = 13.0

     total cpu time spent up to now is       17.7 secs

     total energy              =     -22.76244387 Ry
     estimated scf accuracy    <       0.00012258 Ry

     iteration #  2     ecut=    50.00 Ry     beta= 0.70
     Davidson diagonalization with overlap
     c_bands:  1 eigenvalues not converged
     c_bands:  1 eigenvalues not converged
     c_bands:  1 eigenvalues not converged
     c_bands:  1 eigenvalues not converged
     c_bands:  1 eigenvalues not converged
     c_bands:  1 eigenvalues not converged
     ethr =  1.53E-06,  avg # of iterations = 12.6

     total cpu time spent up to now is       18.0 secs

     total energy              =     -22.76268925 Ry
     estimated scf accuracy    <       0.00011502 Ry

     iteration #  3     ecut=    50.00 Ry     beta= 0.70
     Davidson diagonalization with overlap
     c_bands:  1 eigenvalues not converged
     ethr =  1.44E-06,  avg # of iterations =  2.5

     total cpu time spent up to now is       18.1 secs

     total energy              =     -22.76268303 Ry
     estimated scf accuracy    <       0.00002625 Ry

     iteration #  4     ecut=    50.00 Ry     beta= 0.70
     Davidson diagonalization with overlap
     ethr =  3.28E-07,  avg # of iterations =  1.7

     total cpu time spent up to now is       18.2 secs

     total energy              =     -22.76268451 Ry
     estimated scf accuracy    <       0.00000531 Ry

     iteration #  5     ecut=    50.00 Ry     beta= 0.70
     Davidson diagonalization with overlap
     ethr =  6.64E-08,  avg # of iterations =  1.0

     total cpu time spent up to now is       18.3 secs

     total energy              =     -22.76268321 Ry
     estimated scf accuracy    <       0.00000533 Ry

     iteration #  6     ecut=    50.00 Ry     beta= 0.70
     Davidson diagonalization with overlap
     ethr =  6.64E-08,  avg # of iterations =  1.0

     total cpu time spent up to now is       18.4 secs

     total energy              =     -22.76268163 Ry
     estimated scf accuracy    <       0.00000261 Ry

     iteration #  7     ecut=    50.00 Ry     beta= 0.70
     Davidson diagonalization with overlap
     ethr =  3.26E-08,  avg # of iterations =  2.0

     total cpu time spent up to now is       18.5 secs

     total energy              =     -22.76268207 Ry
     estimated scf accuracy    <       0.00000010 Ry

     iteration #  8     ecut=    50.00 Ry     beta= 0.70
     Davidson diagonalization with overlap
     ethr =  1.31E-09,  avg # of iterations =  1.5

     total cpu time spent up to now is       18.6 secs

     total energy              =     -22.76268208 Ry
     estimated scf accuracy    <          7.9E-09 Ry

     iteration #  9     ecut=    50.00 Ry     beta= 0.70
     Davidson diagonalization with overlap
     ethr =  9.87E-11,  avg # of iterations =  2.1

     total cpu time spent up to now is       18.8 secs

     total energy              =     -22.76268208 Ry
     estimated scf accuracy    <          1.7E-09 Ry

     iteration # 10     ecut=    50.00 Ry     beta= 0.70
     Davidson diagonalization with overlap
     ethr =  2.14E-11,  avg # of iterations =  1.4

     total cpu time spent up to now is       18.9 secs

     total energy              =     -22.76268208 Ry
     estimated scf accuracy    <          6.7E-10 Ry

     iteration # 11     ecut=    50.00 Ry     beta= 0.70
     Davidson diagonalization with overlap
     ethr =  8.33E-12,  avg # of iterations =  2.0

     total cpu time spent up to now is       19.0 secs

     total energy              =     -22.76268208 Ry
     estimated scf accuracy    <          6.6E-10 Ry

     iteration # 12     ecut=    50.00 Ry     beta= 0.70
     Davidson diagonalization with overlap
     ethr =  8.21E-12,  avg # of iterations =  1.0

     total cpu time spent up to now is       19.1 secs

     total energy              =     -22.76268208 Ry
     estimated scf accuracy    <          2.3E-10 Ry

     iteration # 13     ecut=    50.00 Ry     beta= 0.70
     Davidson diagonalization with overlap
     ethr =  2.92E-12,  avg # of iterations =  1.0

     total cpu time spent up to now is       19.2 secs

     End of self-consistent calculation

          k = 0.0000 0.0000 0.0000 (  3727 PWs)   bands (ev):

   -24.0765 -12.0770  -7.1018  -7.1018  -0.9948  -0.2144   0.5602   0.9193

          k =-0.0000 0.0705 0.0000 (  3725 PWs)   bands (ev):

   -23.9683 -11.9452  -7.5391  -7.3386  -0.8475  -0.0648   0.7106   1.0692

          k =-0.0000 0.1411 0.0000 (  3702 PWs)   bands (ev):

   -23.6446 -11.5548  -8.6960  -7.9321  -0.4056   0.3834   1.1618   1.5183

          k =-0.0000 0.2116 0.0000 (  3692 PWs)   bands (ev):

   -23.1072 -10.9134 -10.2888  -8.6702   0.3305   1.1279   1.9137   2.2647

          k =-0.0000 0.2821 0.0000 (  3674 PWs)   bands (ev):

   -22.3596 -12.0794 -10.0322  -9.3893   1.3590   2.1447   2.9651   2.9973

          k =-0.0000 0.3527 0.0000 (  3688 PWs)   bands (ev):

   -21.4100 -13.9075  -9.9879  -8.9486   1.0207   2.6730   3.5335   4.0521

          k =-0.0000 0.4232 0.0000 (  3718 PWs)   bands (ev):

   -20.2726 -15.6639 -10.4198  -7.7514  -0.8242   3.8282   4.3285   5.1537

          k =-0.0000 0.4937 0.0000 (  3702 PWs)   bands (ev):

   -19.0095 -17.2409 -10.6360  -6.7427  -2.1756   3.7546   6.1761   7.0511

          k = 0.0611 0.1058 0.0000 (  3699 PWs)   bands (ev):

   -23.7524 -11.6841  -8.2740  -7.8077  -0.5529   0.2341   1.0114   1.3687

          k = 0.0611 0.1763 0.0000 (  3693 PWs)   bands (ev):

   -23.3218 -11.1677  -9.5640  -8.5709   0.0365   0.8308   1.6132   1.9669

          k = 0.0611 0.2469 0.0000 (  3679 PWs)   bands (ev):

   -22.6793 -11.1962 -10.4049  -9.3604   0.9195   1.7207   2.5155   2.8571

          k = 0.0611 0.3174 0.0000 (  3686 PWs)   bands (ev):

   -21.8310 -12.9723 -10.0498  -9.4192   1.9069   2.0930   2.9441   3.7158

          k = 0.0611 0.3879 0.0000 (  3697 PWs)   bands (ev):

   -20.7862 -14.7501 -10.5768  -8.2613   0.0263   3.5451   4.4078   4.4475

          k = 0.0611 0.4585 0.0000 (  3712 PWs)   bands (ev):

   -19.5706 -16.4264 -10.9061  -7.0895  -1.6282   4.2695   5.3187   6.1618

          k = 0.0611 0.5290 0.0000 (  3692 PWs)   bands (ev):

   -18.5346 -17.6122 -11.0168  -6.4666  -2.4168   4.2254   7.2320   7.3882

          k = 0.1222 0.2116 0.0000 (  3687 PWs)   bands (ev):

   -22.7862 -10.6915 -10.5298  -9.5823   0.7732   1.5749   2.3656   2.7133

          k = 0.1222 0.2821 0.0000 (  3703 PWs)   bands (ev):

   -22.0429 -12.1328 -10.5265  -9.6577   1.8022   2.4794   2.6449   3.4184

          k = 0.1222 0.3527 0.0000 (  3699 PWs)   bands (ev):

   -21.0989 -13.7767 -11.2228  -8.5810   0.7392   3.1191   3.9428   4.7694

          k = 0.1222 0.4232 0.0000 (  3701 PWs)   bands (ev):

   -19.9699 -15.4455 -11.6818  -7.3832  -0.9795   4.7114   5.5356   5.6549

          k = 0.1222 0.4937 0.0000 (  3694 PWs)   bands (ev):

   -18.7230 -16.9737 -11.9117  -6.3533  -2.2899   5.5330   6.5932   7.2967

          k = 0.1833 0.3174 0.0000 (  3703 PWs)   bands (ev):

   -21.2037 -13.1643 -11.7536  -8.6904   1.0364   2.9744   3.7802   4.6213

          k = 0.1833 0.3879 0.0000 (  3699 PWs)   bands (ev):

   -20.1737 -14.4881 -12.6002  -7.5468  -0.5180   4.4284   5.2000   6.1217

          k = 0.1833 0.4585 0.0000 (  3678 PWs)   bands (ev):

   -18.9823 -15.9704 -13.0306  -6.3542  -1.9804   6.1442   6.6938   7.3690

          k = 0.1833 0.5290 0.0000 (  3684 PWs)   bands (ev):

   -17.9830 -17.0828 -13.1659  -5.6715  -2.7606   7.2942   7.3703   7.9772

          k = 0.2443 0.4232 0.0000 (  3677 PWs)   bands (ev):

   -19.0764 -15.2682 -13.7835  -6.3703  -1.8189   6.0023   6.4498   7.7246

          k = 0.2443 0.4937 0.0000 (  3665 PWs)   bands (ev):

   -17.8842 -16.3601 -14.3391  -5.2367  -3.0109   6.8074   7.7746   9.2191

          k = 0.3054 0.5290 0.0000 (  3699 PWs)   bands (ev):

   -16.8896 -16.8896 -15.0297  -4.1022  -4.1022   6.5931   9.1364   9.1364

     the Fermi energy is    -4.1022 ev

!    total energy              =     -22.76268208 Ry
     estimated scf accuracy    <          9.0E-11 Ry
     smearing contrib. (-TS)   =      -0.00005015 Ry
     internal energy E=F+TS    =     -22.76263193 Ry

     The total energy is F=E-TS. E is the sum of the following terms:
     one-electron contribution =    -399.80338044 Ry
     hartree contribution      =     200.55467246 Ry
     xc contribution           =      -7.07973389 Ry
     ewald contribution        =     183.56580994 Ry

     convergence has been achieved in  13 iterations

     Forces acting on atoms (cartesian axes, Ry/au):

     atom    1 type  1   force =     0.00000000    0.00000000    0.00000000
     atom    2 type  1   force =     0.00000000    0.00000000    0.00000000

     Total force =     0.000000     Total SCF correction =     0.000000


     Computing stress (Cartesian axis) and pressure

          total   stress  (Ry/bohr**3)                   (kbar)     P=       -7.04
   0.00000066  -0.00000000   0.00000000            0.10       -0.00        0.00
   0.00000000   0.00000066   0.00000000            0.00        0.10        0.00
   0.00000000   0.00000000  -0.00014484            0.00        0.00      -21.31

     Energy error            =      1.8E-05
     Gradient error          =      0.0E+00
     Cell gradient error     =      6.6E-07


     number of scf cycles    =   5
     number of bfgs steps    =   4

     enthalpy old            =     -22.7626638415 Ry
     enthalpy new            =     -22.7626820820 Ry

     CASE: enthalpy_new < enthalpy_old

     new trust radius        =       0.0002277558 bohr
     new conv_thr            =            1.0E-10 Ry

     new unit-cell volume =    737.04089 a.u.^3 (   109.21819 Ang^3 )
     density =      0.36522 g/cm^3

CELL_PARAMETERS (alat=  4.20000000)
   1.091449568   0.000000000   0.000000000
  -0.545724784   0.945223053   0.000000000
   0.000000000   0.000000000   9.642857143

ATOMIC_POSITIONS (crystal)
C             0.3333333333        0.6666666667        0.5000000000
C             0.6666666667        0.3333333333        0.5000000000



     Writing output data file ./work/LiC420.save/
     NEW-OLD atomic charge density approx. for the potential
     extrapolated charge    8.00067, renormalised to    8.00000

     total cpu time spent up to now is       19.3 secs

     Self-consistent Calculation

     iteration #  1     ecut=    50.00 Ry     beta= 0.70
     Davidson diagonalization with overlap
     ethr =  1.00E-06,  avg # of iterations =  2.4

     Threshold (ethr) on eigenvalues was too large:
     Diagonalizing with lowered threshold

     Davidson diagonalization with overlap
     ethr =  1.62E-09,  avg # of iterations =  1.4

     total cpu time spent up to now is       19.5 secs

     total energy              =     -22.76268183 Ry
     estimated scf accuracy    <       0.00000014 Ry

     iteration #  2     ecut=    50.00 Ry     beta= 0.70
     Davidson diagonalization with overlap
     ethr =  1.78E-09,  avg # of iterations =  3.0

     total cpu time spent up to now is       19.6 secs

     total energy              =     -22.76268211 Ry
     estimated scf accuracy    <       0.00000013 Ry

     iteration #  3     ecut=    50.00 Ry     beta= 0.70
     Davidson diagonalization with overlap
     ethr =  1.61E-09,  avg # of iterations =  1.0

     total cpu time spent up to now is       19.8 secs

     total energy              =     -22.76268210 Ry
     estimated scf accuracy    <       0.00000003 Ry

     iteration #  4     ecut=    50.00 Ry     beta= 0.70
     Davidson diagonalization with overlap
     ethr =  3.67E-10,  avg # of iterations =  2.0

     total cpu time spent up to now is       19.9 secs

     total energy              =     -22.76268210 Ry
     estimated scf accuracy    <          4.5E-09 Ry

     iteration #  5     ecut=    50.00 Ry     beta= 0.70
     Davidson diagonalization with overlap
     ethr =  5.65E-11,  avg # of iterations =  1.0

     total cpu time spent up to now is       20.0 secs

     total energy              =     -22.76268211 Ry
     estimated scf accuracy    <          4.5E-09 Ry

     iteration #  6     ecut=    50.00 Ry     beta= 0.70
     Davidson diagonalization with overlap
     ethr =  5.60E-11,  avg # of iterations =  1.0

     total cpu time spent up to now is       20.1 secs

     total energy              =     -22.76268210 Ry
     estimated scf accuracy    <          6.2E-09 Ry

     iteration #  7     ecut=    50.00 Ry     beta= 0.70
     Davidson diagonalization with overlap
     ethr =  5.60E-11,  avg # of iterations =  2.0

     total cpu time spent up to now is       20.2 secs

     total energy              =     -22.76268210 Ry
     estimated scf accuracy    <          2.3E-09 Ry

     iteration #  8     ecut=    50.00 Ry     beta= 0.70
     Davidson diagonalization with overlap
     ethr =  2.89E-11,  avg # of iterations =  1.0

     total cpu time spent up to now is       20.3 secs

     End of self-consistent calculation

          k = 0.0000 0.0000 0.0000 (  3727 PWs)   bands (ev):

   -24.0758 -12.0764  -7.1021  -7.1021  -0.9947  -0.2144   0.5602   0.9193

          k =-0.0000 0.0705 0.0000 (  3725 PWs)   bands (ev):

   -23.9676 -11.9447  -7.5394  -7.3389  -0.8475  -0.0648   0.7106   1.0692

          k =-0.0000 0.1411 0.0000 (  3702 PWs)   bands (ev):

   -23.6439 -11.5543  -8.6963  -7.9323  -0.4057   0.3833   1.1618   1.5183

          k =-0.0000 0.2116 0.0000 (  3692 PWs)   bands (ev):

   -23.1066 -10.9129 -10.2889  -8.6703   0.3304   1.1278   1.9136   2.2646

          k =-0.0000 0.2821 0.0000 (  3674 PWs)   bands (ev):

   -22.3590 -12.0795 -10.0319  -9.3894   1.3588   2.1444   2.9648   2.9962

          k =-0.0000 0.3527 0.0000 (  3688 PWs)   bands (ev):

   -21.4095 -13.9074  -9.9879  -8.9484   1.0198   2.6727   3.5331   4.0505

          k =-0.0000 0.4232 0.0000 (  3718 PWs)   bands (ev):

   -20.2721 -15.6637 -10.4198  -7.7513  -0.8248   3.8267   4.3279   5.1532

          k =-0.0000 0.4937 0.0000 (  3702 PWs)   bands (ev):

   -19.0092 -17.2405 -10.6359  -6.7428  -2.1760   3.7530   6.1755   7.0505

          k = 0.0611 0.1058 0.0000 (  3699 PWs)   bands (ev):

   -23.7517 -11.6836  -8.2743  -7.8079  -0.5529   0.2340   1.0114   1.3687

          k = 0.0611 0.1763 0.0000 (  3693 PWs)   bands (ev):

   -23.3211 -11.1672  -9.5642  -8.5710   0.0364   0.8307   1.6131   1.9669

          k = 0.0611 0.2469 0.0000 (  3679 PWs)   bands (ev):

   -22.6787 -11.1963 -10.4045  -9.3604   0.9194   1.7205   2.5153   2.8569

          k = 0.0611 0.3174 0.0000 (  3686 PWs)   bands (ev):

   -21.8304 -12.9723 -10.0498  -9.4189   1.9060   2.0928   2.9437   3.7155

          k = 0.0611 0.3879 0.0000 (  3697 PWs)   bands (ev):

   -20.7857 -14.7499 -10.5767  -8.2611   0.0256   3.5447   4.4074   4.4459

          k = 0.0611 0.4584 0.0000 (  3712 PWs)   bands (ev):

   -19.5702 -16.4261 -10.9060  -7.0895  -1.6287   4.2679   5.3181   6.1612

          k = 0.0611 0.5290 0.0000 (  3692 PWs)   bands (ev):

   -18.5345 -17.6117 -11.0167  -6.4667  -2.4172   4.2238   7.2313   7.3875

          k = 0.1222 0.2116 0.0000 (  3687 PWs)   bands (ev):

   -22.7856 -10.6917 -10.5294  -9.5823   0.7731   1.5747   2.3655   2.7132

          k = 0.1222 0.2821 0.0000 (  3703 PWs)   bands (ev):

   -22.0423 -12.1329 -10.5264  -9.6574   1.8020   2.4785   2.6444   3.4182

          k = 0.1222 0.3527 0.0000 (  3699 PWs)   bands (ev):

   -21.0984 -13.7767 -11.2227  -8.5809   0.7384   3.1188   3.9424   4.7690

          k = 0.1222 0.4232 0.0000 (  3701 PWs)   bands (ev):

   -19.9695 -15.4453 -11.6817  -7.3832  -0.9801   4.7109   5.5351   5.6533

          k = 0.1222 0.4937 0.0000 (  3694 PWs)   bands (ev):

   -18.7227 -16.9734 -11.9116  -6.3534  -2.2903   5.5313   6.5926   7.2960

          k = 0.1832 0.3174 0.0000 (  3703 PWs)   bands (ev):

   -21.2032 -13.1644 -11.7534  -8.6902   1.0355   2.9741   3.7798   4.6210

          k = 0.1832 0.3879 0.0000 (  3699 PWs)   bands (ev):

   -20.1732 -14.4880 -12.5999  -7.5468  -0.5187   4.4280   5.1995   6.1212

          k = 0.1832 0.4584 0.0000 (  3678 PWs)   bands (ev):

   -18.9820 -15.9702 -13.0304  -6.3543  -1.9809   6.1436   6.6932   7.3673

          k = 0.1832 0.5290 0.0000 (  3684 PWs)   bands (ev):

   -17.9829 -17.0824 -13.1656  -5.6717  -2.7610   7.2925   7.3696   7.9764

          k = 0.2443 0.4232 0.0000 (  3677 PWs)   bands (ev):

   -19.0761 -15.2681 -13.7830  -6.3703  -1.8194   6.0017   6.4492   7.7239

          k = 0.2443 0.4937 0.0000 (  3665 PWs)   bands (ev):

   -17.8840 -16.3600 -14.3387  -5.2369  -3.0113   6.8068   7.7738   9.2183

          k = 0.3054 0.5290 0.0000 (  3699 PWs)   bands (ev):

   -16.8895 -16.8895 -15.0290  -4.1025  -4.1025   6.5926   9.1353   9.1353

     the Fermi energy is    -4.1025 ev

!    total energy              =     -22.76268210 Ry
     estimated scf accuracy    <          2.5E-11 Ry
     smearing contrib. (-TS)   =      -0.00005015 Ry
     internal energy E=F+TS    =     -22.76263195 Ry

     The total energy is F=E-TS. E is the sum of the following terms:
     one-electron contribution =    -399.76937547 Ry
     hartree contribution      =     200.53756358 Ry
     xc contribution           =      -7.07954518 Ry
     ewald contribution        =     183.54872511 Ry

     convergence has been achieved in   8 iterations

     Forces acting on atoms (cartesian axes, Ry/au):

     atom    1 type  1   force =     0.00000000    0.00000000    0.00000000
     atom    2 type  1   force =    -0.00000000   -0.00000000    0.00000000

     Total force =     0.000000     Total SCF correction =     0.000000


     Computing stress (Cartesian axis) and pressure

          total   stress  (Ry/bohr**3)                   (kbar)     P=       -7.10
   0.00000000   0.00000000   0.00000000            0.00        0.00        0.00
   0.00000000   0.00000000   0.00000000            0.00        0.00        0.00
   0.00000000   0.00000000  -0.00014487            0.00        0.00      -21.31

     Energy error            =      2.1E-08
     Gradient error          =      1.6E-26
     Cell gradient error     =      4.7E-09


     bfgs converged in   6 scf cycles and   5 bfgs steps
     (criteria: energy <  1.0E-04 Ry, force <  1.0E-08Ry/Bohr, cell <  1.0E-03kbar)

     End of BFGS Geometry Optimization

     Final enthalpy =     -22.7626821025 Ry

     File ./work/LiC420.bfgs deleted, as requested
Begin final coordinates
     new unit-cell volume =    737.04089 a.u.^3 (   109.21819 Ang^3 )
     density =      0.36522 g/cm^3

CELL_PARAMETERS (alat=  4.20000000)
   1.091449568   0.000000000   0.000000000
  -0.545724784   0.945223053   0.000000000
   0.000000000   0.000000000   9.642857143

ATOMIC_POSITIONS (crystal)
C             0.3333333333        0.6666666667        0.5000000000
C             0.6666666667        0.3333333333        0.5000000000
End final coordinates



     Writing output data file ./work/LiC420.save/

     Final scf calculation at the relaxed structure.
     The G-vectors are recalculated for the final unit cell
     Results may differ from those at the preceding step.
 
     Parallelization info
     --------------------
     sticks:   dense  smooth     PW     G-vecs:    dense   smooth      PW
     Min           9       9      2                 1095     1095     170
     Max          10      10      3                 1114     1114     213
     Sum         295     295     91                35253    35253    6313
 


     bravais-lattice index     =            4
     lattice parameter (alat)  =       4.2000  a.u.
     unit-cell volume          =     737.0409 (a.u.)^3
     number of atoms/cell      =            2
     number of atomic types    =            1
     number of electrons       =         8.00
     number of Kohn-Sham states=            8
     kinetic-energy cutoff     =      50.0000  Ry
     charge density cutoff     =     200.0000  Ry
     scf convergence threshold =      1.0E-10
     mixing beta               =       0.7000
     number of iterations used =            8  plain     mixing
     press convergence thresh. =      1.0E-03
     Exchange-correlation= PBE
                           (   1   4   3   4   0   0   0)

     celldm(1)=   4.200000  celldm(2)=   0.000000  celldm(3)=   9.642857
     celldm(4)=   0.000000  celldm(5)=   0.000000  celldm(6)=   0.000000

     crystal axes: (cart. coord. in units of alat)
               a(1) = (   1.091450   0.000000   0.000000 )  
               a(2) = (  -0.545725   0.945223   0.000000 )  
               a(3) = (   0.000000   0.000000   9.642857 )  

     reciprocal axes: (cart. coord. in units 2 pi/alat)
               b(1) = (  0.916213  0.528976  0.000000 )  
               b(2) = ( -0.000000  1.057951  0.000000 )  
               b(3) = (  0.000000  0.000000  0.103704 )  


     PseudoPot. # 1 for C  read from file:
     /home/yhkim/qe-6.7/pseudo/ONCV1/1.2/C_ONCV_PBE-1.2.upf
     MD5 check sum: 1a5f83a7b1f58d24996abe00ed223ac6
     Pseudo is Norm-conserving, Zval =  4.0
     Generated using ONCVPSP code by D. R. Hamann
     Using radial grid of  602 points,  4 beta functions with: 
                l(1) =   0
                l(2) =   0
                l(3) =   1
                l(4) =   1

     atomic species   valence    mass     pseudopotential
        C              4.00    12.01070     C ( 1.00)

     24 Sym. Ops., with inversion, found



   Cartesian axes

     site n.     atom                  positions (alat units)
         1           C   tau(   1) = (  -0.0000000   0.6301487   4.8214286  )
         2           C   tau(   2) = (   0.5457248   0.3150744   4.8214286  )

     number of k points=    27  Methfessel-Paxton smearing, width (Ry)=  0.0100
                       cart. coord. in units 2pi/alat
        k(    1) = (   0.0000000   0.0000000   0.0000000), wk =   0.0088889
        k(    2) = (  -0.0000000   0.0705301   0.0000000), wk =   0.0533333
        k(    3) = (  -0.0000000   0.1410602   0.0000000), wk =   0.0533333
        k(    4) = (  -0.0000000   0.2115903   0.0000000), wk =   0.0533333
        k(    5) = (  -0.0000000   0.2821204   0.0000000), wk =   0.0533333
        k(    6) = (  -0.0000000   0.3526504   0.0000000), wk =   0.0533333
        k(    7) = (  -0.0000000   0.4231805   0.0000000), wk =   0.0533333
        k(    8) = (  -0.0000000   0.4937106   0.0000000), wk =   0.0533333
        k(    9) = (   0.0610808   0.1057951   0.0000000), wk =   0.0533333
        k(   10) = (   0.0610808   0.1763252   0.0000000), wk =   0.1066667
        k(   11) = (   0.0610808   0.2468553   0.0000000), wk =   0.1066667
        k(   12) = (   0.0610808   0.3173854   0.0000000), wk =   0.1066667
        k(   13) = (   0.0610808   0.3879155   0.0000000), wk =   0.1066667
        k(   14) = (   0.0610808   0.4584456   0.0000000), wk =   0.1066667
        k(   15) = (   0.0610808   0.5289757   0.0000000), wk =   0.0533333
        k(   16) = (   0.1221617   0.2115903   0.0000000), wk =   0.0533333
        k(   17) = (   0.1221617   0.2821204   0.0000000), wk =   0.1066667
        k(   18) = (   0.1221617   0.3526504   0.0000000), wk =   0.1066667
        k(   19) = (   0.1221617   0.4231805   0.0000000), wk =   0.1066667
        k(   20) = (   0.1221617   0.4937106   0.0000000), wk =   0.1066667
        k(   21) = (   0.1832425   0.3173854   0.0000000), wk =   0.0533333
        k(   22) = (   0.1832425   0.3879155   0.0000000), wk =   0.1066667
        k(   23) = (   0.1832425   0.4584456   0.0000000), wk =   0.1066667
        k(   24) = (   0.1832425   0.5289757   0.0000000), wk =   0.0533333
        k(   25) = (   0.2443234   0.4231805   0.0000000), wk =   0.0533333
        k(   26) = (   0.2443234   0.4937106   0.0000000), wk =   0.1066667
        k(   27) = (   0.3054042   0.5289757   0.0000000), wk =   0.0177778

     Dense  grid:    35253 G-vectors     FFT dimensions: (  24,  24, 192)

     Estimated max dynamical RAM per process >       1.93 MB

     Estimated total dynamical RAM >      61.84 MB
 ----2D----2D----2D----2D----2D----2D----2D----2D----2D----2D----2D----2D
  The code is running with the 2D cutoff
  Please refer to:
  Sohier, T., Calandra, M., & Mauri, F. (2017), 
  Density functional perturbation theory for gated two-dimensional heterostructu
 res:
  Theoretical developments and application to flexural phonons in graphene.
  Physical Review B, 96(7), 75448. https://doi.org/10.1103/PhysRevB.96.075448
 ----2D----2D----2D----2D----2D----2D----2D----2D----2D----2D----2D----2D

     Initial potential from superposition of free atoms

     starting charge    7.98607, renormalised to    8.00000

     negative rho (up, down):  1.113E-04 0.000E+00
     Starting wfcs are random

     total cpu time spent up to now is       20.4 secs

     Self-consistent Calculation

     iteration #  1     ecut=    50.00 Ry     beta= 0.70
     Davidson diagonalization with overlap
     c_bands:  3 eigenvalues not converged
     c_bands:  2 eigenvalues not converged
     c_bands:  5 eigenvalues not converged
     c_bands:  5 eigenvalues not converged
     c_bands:  4 eigenvalues not converged
     c_bands:  4 eigenvalues not converged
     c_bands:  3 eigenvalues not converged
     c_bands:  2 eigenvalues not converged
     c_bands:  5 eigenvalues not converged
     c_bands:  5 eigenvalues not converged
     c_bands:  4 eigenvalues not converged
     c_bands:  4 eigenvalues not converged
     c_bands:  3 eigenvalues not converged
     c_bands:  3 eigenvalues not converged
     c_bands:  2 eigenvalues not converged
     c_bands:  4 eigenvalues not converged
     c_bands:  4 eigenvalues not converged
     c_bands:  3 eigenvalues not converged
     c_bands:  3 eigenvalues not converged
     c_bands:  3 eigenvalues not converged
     c_bands:  4 eigenvalues not converged
     c_bands:  3 eigenvalues not converged
     c_bands:  3 eigenvalues not converged
     c_bands:  3 eigenvalues not converged
     c_bands:  3 eigenvalues not converged
     c_bands:  3 eigenvalues not converged
     c_bands:  3 eigenvalues not converged
     ethr =  1.00E-06,  avg # of iterations = 21.5

     negative rho (up, down):  2.221E-05 0.000E+00

     total cpu time spent up to now is       21.2 secs

     total energy              =     -22.75436572 Ry
     estimated scf accuracy    <       0.21812339 Ry

     iteration #  2     ecut=    50.00 Ry     beta= 0.70
     Davidson diagonalization with overlap
     ethr =  2.73E-03,  avg # of iterations =  2.2

     negative rho (up, down):  2.778E-06 0.000E+00

     total cpu time spent up to now is       21.3 secs

     total energy              =     -22.78755790 Ry
     estimated scf accuracy    <       0.00240929 Ry

     iteration #  3     ecut=    50.00 Ry     beta= 0.70
     Davidson diagonalization with overlap
     ethr =  3.01E-05,  avg # of iterations =  8.7

     total cpu time spent up to now is       21.5 secs

     total energy              =     -22.78799615 Ry
     estimated scf accuracy    <       0.00017651 Ry

     iteration #  4     ecut=    50.00 Ry     beta= 0.70
     Davidson diagonalization with overlap
     c_bands:  1 eigenvalues not converged
     ethr =  2.21E-06,  avg # of iterations =  6.6

     total cpu time spent up to now is       21.6 secs

     total energy              =     -22.78801059 Ry
     estimated scf accuracy    <       0.00000124 Ry

     iteration #  5     ecut=    50.00 Ry     beta= 0.70
     Davidson diagonalization with overlap
     c_bands:  1 eigenvalues not converged
     ethr =  1.55E-08,  avg # of iterations =  4.3

     total cpu time spent up to now is       21.8 secs

     total energy              =     -22.78801197 Ry
     estimated scf accuracy    <       0.00000004 Ry

     iteration #  6     ecut=    50.00 Ry     beta= 0.70
     Davidson diagonalization with overlap
     ethr =  4.82E-10,  avg # of iterations =  2.3

     total cpu time spent up to now is       21.9 secs

     total energy              =     -22.78801198 Ry
     estimated scf accuracy    <          1.1E-09 Ry

     iteration #  7     ecut=    50.00 Ry     beta= 0.70
     Davidson diagonalization with overlap
     ethr =  1.35E-11,  avg # of iterations =  3.1

     total cpu time spent up to now is       22.0 secs

     End of self-consistent calculation

          k = 0.0000 0.0000 0.0000 (  4351 PWs)   bands (ev):

   -24.0424 -12.0641  -7.1583  -7.1583  -0.9896  -0.2045   0.5809   0.9364

          k =-0.0000 0.0705 0.0000 (  4377 PWs)   bands (ev):

   -23.9344 -11.9341  -7.5918  -7.3947  -0.8424  -0.0551   0.7313   1.0862

          k =-0.0000 0.1411 0.0000 (  4347 PWs)   bands (ev):

   -23.6111 -11.5435  -8.7373  -7.9841  -0.4008   0.3929   1.1824   1.5354

          k =-0.0000 0.2116 0.0000 (  4373 PWs)   bands (ev):

   -23.0753 -10.9008 -10.3238  -8.7235   0.3348   1.1373   1.9341   2.2818

          k =-0.0000 0.2821 0.0000 (  4405 PWs)   bands (ev):

   -22.3310 -12.1023 -10.0217  -9.4410   1.3624   2.1525   2.9850   2.9908

          k =-0.0000 0.3527 0.0000 (  4425 PWs)   bands (ev):

   -21.3848 -13.9155 -10.0392  -8.9404   1.0160   2.6749   3.5417   4.0604

          k =-0.0000 0.4232 0.0000 (  4423 PWs)   bands (ev):

   -20.2508 -15.6646 -10.4581  -7.7431  -0.8257   3.8375   4.3340   5.1612

          k =-0.0000 0.4937 0.0000 (  4419 PWs)   bands (ev):

   -18.9908 -17.2417 -10.6751  -6.7362  -2.1747   3.7697   6.1757   7.0569

          k = 0.0611 0.1058 0.0000 (  4353 PWs)   bands (ev):

   -23.7186 -11.6732  -8.3252  -7.8618  -0.5479   0.2437   1.0320   1.3857

          k = 0.0611 0.1763 0.0000 (  4361 PWs)   bands (ev):

   -23.2893 -11.1569  -9.5998  -8.6188   0.0411   0.8402   1.6337   1.9839

          k = 0.0611 0.2469 0.0000 (  4389 PWs)   bands (ev):

   -22.6493 -11.2221 -10.3948  -9.4097   0.9234   1.7296   2.5358   2.8740

          k = 0.0611 0.3174 0.0000 (  4414 PWs)   bands (ev):

   -21.8041 -12.9873 -10.0962  -9.4099   1.9002   2.0958   2.9524   3.7355

          k = 0.0611 0.3879 0.0000 (  4417 PWs)   bands (ev):

   -20.7633 -14.7541 -10.6180  -8.2534   0.0233   3.5457   4.4155   4.4542

          k = 0.0611 0.4584 0.0000 (  4423 PWs)   bands (ev):

   -19.5518 -16.4251 -10.9423  -7.0825  -1.6282   4.2777   5.3203   6.1681

          k = 0.0611 0.5290 0.0000 (  4408 PWs)   bands (ev):

   -18.5110 -17.6221 -11.0522  -6.4613  -2.4146   4.2351   7.2307   7.3839

          k = 0.1222 0.2116 0.0000 (  4383 PWs)   bands (ev):

   -22.7559 -10.7168 -10.5198  -9.6259   0.7772   1.5839   2.3859   2.7303

          k = 0.1222 0.2821 0.0000 (  4398 PWs)   bands (ev):

   -22.0150 -12.1453 -10.5648  -9.6486   1.8055   2.4744   2.6508   3.4386

          k = 0.1222 0.3527 0.0000 (  4411 PWs)   bands (ev):

   -21.0747 -13.7840 -11.2583  -8.5730   0.7354   3.1211   3.9505   4.7889

          k = 0.1222 0.4232 0.0000 (  4425 PWs)   bands (ev):

   -19.9504 -15.4466 -11.7154  -7.3766  -0.9810   4.7106   5.5419   5.6500

          k = 0.1222 0.4937 0.0000 (  4404 PWs)   bands (ev):

   -18.7069 -16.9767 -11.9431  -6.3471  -2.2879   5.5288   6.5918   7.3001

          k = 0.1832 0.3174 0.0000 (  4397 PWs)   bands (ev):

   -21.1790 -13.1658 -11.7899  -8.6819   1.0303   2.9767   3.7879   4.6411

          k = 0.1832 0.3879 0.0000 (  4415 PWs)   bands (ev):

   -20.1536 -14.4884 -12.6327  -7.5398  -0.5216   4.4290   5.2061   6.1412

          k = 0.1832 0.4584 0.0000 (  4412 PWs)   bands (ev):

   -18.9681 -15.9717 -13.0622  -6.3485  -1.9820   6.1410   6.6970   7.3440

          k = 0.1832 0.5290 0.0000 (  4411 PWs)   bands (ev):

   -17.9652 -17.0908 -13.1949  -5.6663  -2.7596   7.2703   7.3729   7.9708

          k = 0.2443 0.4232 0.0000 (  4409 PWs)   bands (ev):

   -19.0621 -15.2631 -13.8202  -6.3637  -1.8222   6.0000   6.4533   7.7443

          k = 0.2443 0.4937 0.0000 (  4394 PWs)   bands (ev):

   -17.8733 -16.3577 -14.3747  -5.2324  -3.0104   6.8126   7.7652   9.0045

          k = 0.3054 0.5290 0.0000 (  4395 PWs)   bands (ev):

   -16.8770 -16.8770 -15.0643  -4.0995  -4.0995   6.5997   9.1079   9.1079

     the Fermi energy is    -4.0995 ev

!    total energy              =     -22.78801198 Ry
     estimated scf accuracy    <          1.2E-11 Ry
     smearing contrib. (-TS)   =      -0.00005015 Ry
     internal energy E=F+TS    =     -22.78796183 Ry

     The total energy is F=E-TS. E is the sum of the following terms:
     one-electron contribution =    -399.81611253 Ry
     hartree contribution      =     200.56042763 Ry
     xc contribution           =      -7.08100237 Ry
     ewald contribution        =     183.54872543 Ry

     convergence has been achieved in   7 iterations

     Forces acting on atoms (cartesian axes, Ry/au):

     atom    1 type  1   force =    -0.00000000   -0.00000000    0.00000000
     atom    2 type  1   force =     0.00000000    0.00000000    0.00000000

     Total force =     0.000000     Total SCF correction =     0.000000


     Computing stress (Cartesian axis) and pressure

          total   stress  (Ry/bohr**3)                   (kbar)     P=        5.87
   0.00011610  -0.00000000   0.00000000           17.08       -0.00        0.00
  -0.00000000   0.00011610   0.00000000           -0.00       17.08        0.00
   0.00000000   0.00000000  -0.00011242            0.00        0.00      -16.54


     Writing output data file ./work/LiC420.save/
 
     init_run     :      0.16s CPU      0.17s WALL (       2 calls)
     electrons    :     20.03s CPU     21.57s WALL (       7 calls)
     update_pot   :      0.05s CPU      0.06s WALL (       5 calls)
     forces       :      0.05s CPU      0.05s WALL (       7 calls)
     stress       :      0.14s CPU      0.14s WALL (       7 calls)

     Called by init_run:
     wfcinit      :      0.10s CPU      0.11s WALL (       2 calls)
     potinit      :      0.03s CPU      0.04s WALL (       2 calls)
     hinit0       :      0.01s CPU      0.01s WALL (       2 calls)

     Called by electrons:
     c_bands      :     17.81s CPU     19.07s WALL (     110 calls)
     sum_band     :      1.98s CPU      2.11s WALL (     110 calls)
     v_of_rho     :      0.18s CPU      0.21s WALL (     116 calls)
     mix_rho      :      0.04s CPU      0.04s WALL (     110 calls)

     Called by c_bands:
     init_us_2    :      0.10s CPU      0.11s WALL (    6372 calls)
     cegterg      :     17.51s CPU     18.72s WALL (    3038 calls)

     Called by *egterg:
     cdiaghg      :      1.57s CPU      1.67s WALL (   17226 calls)
     h_psi        :     14.83s CPU     15.86s WALL (   17451 calls)
     g_psi        :      0.04s CPU      0.04s WALL (   14359 calls)

     Called by h_psi:
     h_psi:calbec :      0.45s CPU      0.48s WALL (   17451 calls)
     vloc_psi     :     14.10s CPU     15.08s WALL (   17451 calls)
     add_vuspsi   :      0.13s CPU      0.15s WALL (   17451 calls)

     General routines
     calbec       :      0.45s CPU      0.49s WALL (   18396 calls)
     fft          :      0.17s CPU      0.18s WALL (    1215 calls)
     ffts         :      0.01s CPU      0.01s WALL (     110 calls)
     fftw         :     15.22s CPU     16.26s WALL (  211866 calls)
 
     Parallel routines
     fft_scatt_xy :      0.79s CPU      0.84s WALL (  213191 calls)
     fft_scatt_yz :      6.34s CPU      6.77s WALL (  213191 calls)
 
     PWSCF        :     20.50s CPU     22.30s WALL

 
   This run was terminated on:  14: 5:11  19Jan2024            

=------------------------------------------------------------------------------=
   JOB DONE.
=------------------------------------------------------------------------------=
