
     Program PWSCF v.6.7MaX starts on 19Jan2024 at 14:19:57 

     This program is part of the open-source Quantum ESPRESSO suite
     for quantum simulation of materials; please cite
         "P. Giannozzi et al., J. Phys.:Condens. Matter 21 395502 (2009);
         "P. Giannozzi et al., J. Phys.:Condens. Matter 29 465901 (2017);
          URL http://www.quantum-espresso.org", 
     in publications or presentations arising from this work. More details at
     http://www.quantum-espresso.org/quote

     Parallel version (MPI), running on    32 processors

     MPI processes distributed on     1 nodes
     R & G space division:  proc/nbgrp/npool/nimage =      32
     Waiting for input...
     Reading input from standard input

     Current dimensions of program PWSCF are:
     Max number of different atomic species (ntypx) = 10
     Max number of k-points (npk) =  40000
     Max angular momentum in pseudopotentials (lmaxx) =  3
     Message from routine read_pp_mesh:
     mesh size missing, using the one in header

     Subspace diagonalization in iterative solution of the eigenvalue problem:
     a serial algorithm will be used

 
     Parallelization info
     --------------------
     sticks:   dense  smooth     PW     G-vecs:    dense   smooth      PW
     Min          10      10      3                 1262     1262     220
     Max          12      12      4                 1285     1285     238
     Sum         337     337    109                40671    40671    7183
 


     bravais-lattice index     =            4
     lattice parameter (alat)  =       4.9300  a.u.
     unit-cell volume          =     852.4708 (a.u.)^3
     number of atoms/cell      =            2
     number of atomic types    =            1
     number of electrons       =         8.00
     number of Kohn-Sham states=            8
     kinetic-energy cutoff     =      50.0000  Ry
     charge density cutoff     =     200.0000  Ry
     scf convergence threshold =      1.0E-08
     mixing beta               =       0.7000
     number of iterations used =            8  plain     mixing
     energy convergence thresh.=      1.0E-04
     force convergence thresh. =      1.0E-08
     press convergence thresh. =      1.0E-03
     Exchange-correlation= PBE
                           (   1   4   3   4   0   0   0)
     nstep                     =           50


     celldm(1)=   4.930000  celldm(2)=   0.000000  celldm(3)=   8.215010
     celldm(4)=   0.000000  celldm(5)=   0.000000  celldm(6)=   0.000000

     crystal axes: (cart. coord. in units of alat)
               a(1) = (   1.000000   0.000000   0.000000 )  
               a(2) = (  -0.500000   0.866025   0.000000 )  
               a(3) = (   0.000000   0.000000   8.215010 )  

     reciprocal axes: (cart. coord. in units 2 pi/alat)
               b(1) = (  1.000000  0.577350  0.000000 )  
               b(2) = (  0.000000  1.154701  0.000000 )  
               b(3) = (  0.000000  0.000000  0.121728 )  


     PseudoPot. # 1 for C  read from file:
     /home/yhkim/qe-6.7/pseudo/ONCV1/1.2/C_ONCV_PBE-1.2.upf
     MD5 check sum: 1a5f83a7b1f58d24996abe00ed223ac6
     Pseudo is Norm-conserving, Zval =  4.0
     Generated using ONCVPSP code by D. R. Hamann
     Using radial grid of  602 points,  4 beta functions with: 
                l(1) =   0
                l(2) =   0
                l(3) =   1
                l(4) =   1

     atomic species   valence    mass     pseudopotential
        C              4.00    12.01070     C ( 1.00)

     24 Sym. Ops., with inversion, found



   Cartesian axes

     site n.     atom                  positions (alat units)
         1           C   tau(   1) = (  -0.0000000   0.5773503   4.1075051  )
         2           C   tau(   2) = (   0.5000000   0.2886751   4.1075051  )

     number of k points=    27  Methfessel-Paxton smearing, width (Ry)=  0.0100
                       cart. coord. in units 2pi/alat
        k(    1) = (   0.0000000   0.0000000   0.0000000), wk =   0.0088889
        k(    2) = (   0.0000000   0.0769800   0.0000000), wk =   0.0533333
        k(    3) = (   0.0000000   0.1539601   0.0000000), wk =   0.0533333
        k(    4) = (   0.0000000   0.2309401   0.0000000), wk =   0.0533333
        k(    5) = (   0.0000000   0.3079201   0.0000000), wk =   0.0533333
        k(    6) = (   0.0000000   0.3849002   0.0000000), wk =   0.0533333
        k(    7) = (   0.0000000   0.4618802   0.0000000), wk =   0.0533333
        k(    8) = (   0.0000000   0.5388603   0.0000000), wk =   0.0533333
        k(    9) = (   0.0666667   0.1154701   0.0000000), wk =   0.0533333
        k(   10) = (   0.0666667   0.1924501   0.0000000), wk =   0.1066667
        k(   11) = (   0.0666667   0.2694301   0.0000000), wk =   0.1066667
        k(   12) = (   0.0666667   0.3464102   0.0000000), wk =   0.1066667
        k(   13) = (   0.0666667   0.4233902   0.0000000), wk =   0.1066667
        k(   14) = (   0.0666667   0.5003702   0.0000000), wk =   0.1066667
        k(   15) = (   0.0666667   0.5773503   0.0000000), wk =   0.0533333
        k(   16) = (   0.1333333   0.2309401   0.0000000), wk =   0.0533333
        k(   17) = (   0.1333333   0.3079201   0.0000000), wk =   0.1066667
        k(   18) = (   0.1333333   0.3849002   0.0000000), wk =   0.1066667
        k(   19) = (   0.1333333   0.4618802   0.0000000), wk =   0.1066667
        k(   20) = (   0.1333333   0.5388603   0.0000000), wk =   0.1066667
        k(   21) = (   0.2000000   0.3464102   0.0000000), wk =   0.0533333
        k(   22) = (   0.2000000   0.4233902   0.0000000), wk =   0.1066667
        k(   23) = (   0.2000000   0.5003702   0.0000000), wk =   0.1066667
        k(   24) = (   0.2000000   0.5773503   0.0000000), wk =   0.0533333
        k(   25) = (   0.2666667   0.4618802   0.0000000), wk =   0.0533333
        k(   26) = (   0.2666667   0.5388603   0.0000000), wk =   0.1066667
        k(   27) = (   0.3333333   0.5773503   0.0000000), wk =   0.0177778

     Dense  grid:    40671 G-vectors     FFT dimensions: (  24,  24, 192)

     Estimated max dynamical RAM per process >       2.09 MB

     Estimated total dynamical RAM >      66.74 MB
 ----2D----2D----2D----2D----2D----2D----2D----2D----2D----2D----2D----2D
  The code is running with the 2D cutoff
  Please refer to:
  Sohier, T., Calandra, M., & Mauri, F. (2017), 
  Density functional perturbation theory for gated two-dimensional heterostructu
 res:
  Theoretical developments and application to flexural phonons in graphene.
  Physical Review B, 96(7), 75448. https://doi.org/10.1103/PhysRevB.96.075448
 ----2D----2D----2D----2D----2D----2D----2D----2D----2D----2D----2D----2D

     Initial potential from superposition of free atoms

     starting charge    7.98607, renormalised to    8.00000

     negative rho (up, down):  1.193E-04 0.000E+00
     Starting wfcs are random

     total cpu time spent up to now is        0.1 secs

     Self-consistent Calculation

     iteration #  1     ecut=    50.00 Ry     beta= 0.70
     Davidson diagonalization with overlap
     ethr =  1.00E-02,  avg # of iterations = 11.7

     negative rho (up, down):  5.965E-08 0.000E+00

     total cpu time spent up to now is        0.5 secs

     total energy              =     -22.74070389 Ry
     estimated scf accuracy    <       0.09791826 Ry

     iteration #  2     ecut=    50.00 Ry     beta= 0.70
     Davidson diagonalization with overlap
     ethr =  1.22E-03,  avg # of iterations =  2.3

     total cpu time spent up to now is        0.7 secs

     total energy              =     -22.75870403 Ry
     estimated scf accuracy    <       0.00195642 Ry

     iteration #  3     ecut=    50.00 Ry     beta= 0.70
     Davidson diagonalization with overlap
     c_bands:  1 eigenvalues not converged
     c_bands:  2 eigenvalues not converged
     ethr =  2.45E-05,  avg # of iterations =  9.6

     total cpu time spent up to now is        0.9 secs

     total energy              =     -22.76189893 Ry
     estimated scf accuracy    <       0.00011797 Ry

     iteration #  4     ecut=    50.00 Ry     beta= 0.70
     Davidson diagonalization with overlap
     ethr =  1.47E-06,  avg # of iterations =  6.7

     total cpu time spent up to now is        1.2 secs

     total energy              =     -22.76193617 Ry
     estimated scf accuracy    <       0.00000023 Ry

     iteration #  5     ecut=    50.00 Ry     beta= 0.70
     Davidson diagonalization with overlap
     ethr =  2.83E-09,  avg # of iterations =  4.6

     total cpu time spent up to now is        1.3 secs

     total energy              =     -22.76193835 Ry
     estimated scf accuracy    <       0.00000002 Ry

     iteration #  6     ecut=    50.00 Ry     beta= 0.70
     Davidson diagonalization with overlap
     ethr =  2.55E-10,  avg # of iterations =  2.1

     total cpu time spent up to now is        1.5 secs

     End of self-consistent calculation

          k = 0.0000 0.0000 0.0000 (  5191 PWs)   bands (ev):

   -22.9238 -11.2448  -7.7911  -7.7911  -0.9441  -0.1981   0.6016   0.9540

          k = 0.0000 0.0770 0.0000 (  5169 PWs)   bands (ev):

   -22.8292 -11.1356  -8.1939  -7.9746  -0.8164  -0.0694   0.7316   1.0831

          k = 0.0000 0.1540 0.0000 (  5157 PWs)   bands (ev):

   -22.5460 -10.8100  -9.2548  -8.4485  -0.4336   0.3161   1.1217   1.4699

          k = 0.0000 0.2309 0.0000 (  5126 PWs)   bands (ev):

   -22.0768 -10.6874 -10.2746  -9.0460   0.2035   0.9552   1.7704   2.1078

          k = 0.0000 0.3079 0.0000 (  5104 PWs)   bands (ev):

   -21.4262 -12.2725  -9.6323  -9.5450   1.0918   1.0974   1.7955   1.8750

          k = 0.0000 0.3849 0.0000 (  5076 PWs)   bands (ev):

   -20.6041 -13.8716 -10.1221  -8.6525  -0.4245   1.4650   2.2405   3.0117

          k = 0.0000 0.4619 0.0000 (  5060 PWs)   bands (ev):

   -19.6350 -15.3892 -10.4686  -7.6766  -1.8782   1.2315   3.6234   4.4008

          k = 0.0000 0.5389 0.0000 (  5068 PWs)   bands (ev):

   -18.6442 -16.6622 -10.6489  -6.8760  -2.9340   1.1090   5.2356   6.0066

          k = 0.0667 0.1155 0.0000 (  5147 PWs)   bands (ev):

   -22.6403 -10.9176  -8.8838  -8.3472  -0.5612   0.1878   0.9916   1.3414

          k = 0.0667 0.1925 0.0000 (  5135 PWs)   bands (ev):

   -22.2640 -10.4872 -10.0546  -8.9615  -0.0510   0.7008   1.5117   1.8559

          k = 0.0667 0.2694 0.0000 (  5117 PWs)   bands (ev):

   -21.7041 -11.5084  -9.8543  -9.6123   0.7126   1.4485   1.7534   2.2851

          k = 0.0667 0.3464 0.0000 (  5089 PWs)   bands (ev):

   -20.9671 -13.0692 -10.1846  -9.0385   0.2623   1.7220   2.0600   2.4977

          k = 0.0667 0.4234 0.0000 (  5080 PWs)   bands (ev):

   -20.0681 -14.6140 -10.6224  -8.0893  -1.2242   1.7672   2.9957   3.7621

          k = 0.0667 0.5004 0.0000 (  5058 PWs)   bands (ev):

   -19.0559 -16.0335 -10.8936  -7.1438  -2.5244   1.5876   4.4941   5.2531

          k = 0.0667 0.5774 0.0000 (  5018 PWs)   bands (ev):

   -18.3395 -16.8877 -10.9847  -6.6554  -3.1343   1.5262   6.1152   6.2882

          k = 0.1333 0.2309 0.0000 (  5117 PWs)   bands (ev):

   -21.7970 -11.1037  -9.9577  -9.7746   0.5858   1.3400   1.9693   2.1618

          k = 0.1333 0.3079 0.0000 (  5096 PWs)   bands (ev):

   -21.1501 -12.3882 -10.5618  -9.2346   0.6860   1.4748   2.2312   3.0693

          k = 0.1333 0.3849 0.0000 (  5077 PWs)   bands (ev):

   -20.3334 -13.8158 -11.1666  -8.3477  -0.7033   2.6081   3.0617   3.3647

          k = 0.1333 0.4619 0.0000 (  5084 PWs)   bands (ev):

   -19.3728 -15.2434 -11.5695  -7.3721  -2.0602   2.8174   3.9948   4.7160

          k = 0.1333 0.5389 0.0000 (  5039 PWs)   bands (ev):

   -18.3893 -16.4744 -11.7702  -6.5495  -3.0859   2.6963   5.5823   6.1627

          k = 0.2000 0.3464 0.0000 (  5103 PWs)   bands (ev):

   -20.4229 -13.3706 -11.5533  -8.4370  -0.4980   2.4860   3.2277   4.1079

          k = 0.2000 0.4234 0.0000 (  5084 PWs)   bands (ev):

   -19.5387 -14.5276 -12.2834  -7.4993  -1.7425   3.7349   4.4300   4.5199

          k = 0.2000 0.5004 0.0000 (  5064 PWs)   bands (ev):

   -18.5453 -15.7552 -12.6893  -6.5341  -2.9084   4.3175   5.2154   5.6628

          k = 0.2000 0.5774 0.0000 (  5076 PWs)   bands (ev):

   -17.8301 -16.5618 -12.8189  -5.9932  -3.5209   4.2548   6.2143   6.6448

          k = 0.2667 0.4619 0.0000 (  5062 PWs)   bands (ev):

   -18.6099 -15.3131 -13.2015  -6.5395  -2.8132   5.0715   5.4691   5.8717

          k = 0.2667 0.5389 0.0000 (  5088 PWs)   bands (ev):

   -17.6469 -16.2176 -13.6725  -5.6239  -3.7813   5.8224   5.8737   6.5084

          k = 0.3333 0.5774 0.0000 (  5100 PWs)   bands (ev):

   -16.8158 -16.8158 -14.0967  -4.6917  -4.6917   5.6900   6.7860   6.7860

     the Fermi energy is    -4.6917 ev

!    total energy              =     -22.76193835 Ry
     estimated scf accuracy    <          4.2E-10 Ry
     smearing contrib. (-TS)   =      -0.00005015 Ry
     internal energy E=F+TS    =     -22.76188820 Ry

     The total energy is F=E-TS. E is the sum of the following terms:
     one-electron contribution =    -345.15267020 Ry
     hartree contribution      =     173.09489744 Ry
     xc contribution           =      -6.77790356 Ry
     ewald contribution        =     156.07378812 Ry

     convergence has been achieved in   6 iterations

     Forces acting on atoms (cartesian axes, Ry/au):

     atom    1 type  1   force =     0.00000000    0.00000000    0.00000000
     atom    2 type  1   force =     0.00000000    0.00000000    0.00000000

     Total force =     0.000000     Total SCF correction =     0.000000


     Computing stress (Cartesian axis) and pressure

          total   stress  (Ry/bohr**3)                   (kbar)     P=      -69.40
  -0.00066204   0.00000000   0.00000000          -97.39        0.00        0.00
   0.00000000  -0.00066204  -0.00000000            0.00      -97.39       -0.00
  -0.00000000   0.00000000  -0.00009121           -0.00        0.00      -13.42


     BFGS Geometry Optimization
     Energy error            =      0.0E+00
     Gradient error          =      0.0E+00
     Cell gradient error     =      6.6E-04


     number of scf cycles    =   1
     number of bfgs steps    =   0

     enthalpy new            =     -22.7619383549 Ry

     new trust radius        =       0.0966476836 bohr
     new conv_thr            =       0.0000000100 Ry

     new unit-cell volume =    824.48596 a.u.^3 (   122.17621 Ang^3 )
     density =      0.32648 g/cm^3

CELL_PARAMETERS (alat=  4.93000000)
   0.983449096   0.000000000   0.000000000
  -0.491724548   0.851691901   0.000000000
   0.000000000   0.000000000   8.215010142

ATOMIC_POSITIONS (crystal)
C             0.3333333333        0.6666666667        0.5000000000
C             0.6666666667        0.3333333333        0.5000000000



     Writing output data file ./work/LiC493.save/
     NEW-OLD atomic charge density approx. for the potential

     negative rho (up, down):  5.050E-06 0.000E+00
     extrapolated charge    7.72894, renormalised to    8.00000

     total cpu time spent up to now is        1.5 secs

     Self-consistent Calculation

     iteration #  1     ecut=    50.00 Ry     beta= 0.70
     Davidson diagonalization with overlap
     c_bands:  2 eigenvalues not converged
     c_bands:  2 eigenvalues not converged
     c_bands:  2 eigenvalues not converged
     c_bands:  3 eigenvalues not converged
     c_bands:  1 eigenvalues not converged
     c_bands:  3 eigenvalues not converged
     c_bands:  4 eigenvalues not converged
     c_bands:  2 eigenvalues not converged
     c_bands:  2 eigenvalues not converged
     c_bands:  2 eigenvalues not converged
     c_bands:  1 eigenvalues not converged
     c_bands:  1 eigenvalues not converged
     c_bands:  1 eigenvalues not converged
     c_bands:  3 eigenvalues not converged
     c_bands:  2 eigenvalues not converged
     c_bands:  2 eigenvalues not converged
     c_bands:  1 eigenvalues not converged
     c_bands:  1 eigenvalues not converged
     c_bands:  2 eigenvalues not converged
     c_bands:  1 eigenvalues not converged
     c_bands:  1 eigenvalues not converged
     ethr =  1.00E-06,  avg # of iterations = 18.8

     negative rho (up, down):  3.746E-07 0.000E+00

     total cpu time spent up to now is        2.0 secs

     total energy              =     -22.74948476 Ry
     estimated scf accuracy    <       0.01564723 Ry

     iteration #  2     ecut=    50.00 Ry     beta= 0.70
     Davidson diagonalization with overlap
     ethr =  1.96E-04,  avg # of iterations = 10.3

     negative rho (up, down):  6.466E-08 0.000E+00

     total cpu time spent up to now is        2.3 secs

     total energy              =     -22.77919418 Ry
     estimated scf accuracy    <       0.01386252 Ry

     iteration #  3     ecut=    50.00 Ry     beta= 0.70
     Davidson diagonalization with overlap
     ethr =  1.73E-04,  avg # of iterations =  1.0

     total cpu time spent up to now is        2.4 secs

     total energy              =     -22.77809538 Ry
     estimated scf accuracy    <       0.00300199 Ry

     iteration #  4     ecut=    50.00 Ry     beta= 0.70
     Davidson diagonalization with overlap
     ethr =  3.75E-05,  avg # of iterations =  4.0

     total cpu time spent up to now is        2.6 secs

     total energy              =     -22.77848768 Ry
     estimated scf accuracy    <       0.00005106 Ry

     iteration #  5     ecut=    50.00 Ry     beta= 0.70
     Davidson diagonalization with overlap
     ethr =  6.38E-07,  avg # of iterations =  6.8

     total cpu time spent up to now is        2.8 secs

     total energy              =     -22.77850618 Ry
     estimated scf accuracy    <       0.00000722 Ry

     iteration #  6     ecut=    50.00 Ry     beta= 0.70
     Davidson diagonalization with overlap
     ethr =  9.03E-08,  avg # of iterations =  1.4

     total cpu time spent up to now is        2.9 secs

     total energy              =     -22.77850007 Ry
     estimated scf accuracy    <       0.00001292 Ry

     iteration #  7     ecut=    50.00 Ry     beta= 0.70
     Davidson diagonalization with overlap
     ethr =  9.03E-08,  avg # of iterations =  2.0

     total cpu time spent up to now is        3.0 secs

     total energy              =     -22.77850155 Ry
     estimated scf accuracy    <       0.00000133 Ry

     iteration #  8     ecut=    50.00 Ry     beta= 0.70
     Davidson diagonalization with overlap
     ethr =  1.67E-08,  avg # of iterations =  1.0

     total cpu time spent up to now is        3.1 secs

     total energy              =     -22.77850157 Ry
     estimated scf accuracy    <       0.00000083 Ry

     iteration #  9     ecut=    50.00 Ry     beta= 0.70
     Davidson diagonalization with overlap
     ethr =  1.03E-08,  avg # of iterations =  1.7

     total cpu time spent up to now is        3.2 secs

     total energy              =     -22.77850162 Ry
     estimated scf accuracy    <       0.00000002 Ry

     iteration # 10     ecut=    50.00 Ry     beta= 0.70
     Davidson diagonalization with overlap
     ethr =  1.99E-10,  avg # of iterations =  2.8

     total cpu time spent up to now is        3.4 secs

     End of self-consistent calculation

          k = 0.0000 0.0000 0.0000 (  5191 PWs)   bands (ev):

   -23.1757 -11.4241  -7.6735  -7.6735  -0.9544  -0.1981   0.6003   0.9530

          k =-0.0000 0.0783 0.0000 (  5169 PWs)   bands (ev):

   -23.0781 -11.3102  -8.0804  -7.8673  -0.8225  -0.0649   0.7347   1.0866

          k =-0.0000 0.1566 0.0000 (  5157 PWs)   bands (ev):

   -22.7861 -10.9707  -9.1571  -8.3660  -0.4270   0.3341   1.1380   1.4869

          k =-0.0000 0.2348 0.0000 (  5126 PWs)   bands (ev):

   -22.3020 -10.6195 -10.4121  -8.9931   0.2314   0.9962   1.8096   2.1501

          k =-0.0000 0.3131 0.0000 (  5104 PWs)   bands (ev):

   -21.6303 -12.2445  -9.6502  -9.6071   1.1500   1.4829   1.9666   2.3489

          k =-0.0000 0.3914 0.0000 (  5076 PWs)   bands (ev):

   -20.7802 -13.8896 -10.1195  -8.7167  -0.1124   2.0200   2.3515   3.1274

          k =-0.0000 0.4697 0.0000 (  5060 PWs)   bands (ev):

   -19.7737 -15.4584 -10.4816  -7.6932  -1.6494   1.8048   3.7698   4.5672

          k =-0.0000 0.5479 0.0000 (  5068 PWs)   bands (ev):

   -18.7239 -16.7978 -10.6697  -6.8491  -2.7676   1.6856   5.4382   6.2365

          k = 0.0678 0.1174 0.0000 (  5147 PWs)   bands (ev):

   -22.8833 -11.0830  -8.7778  -8.2598  -0.5588   0.2013   1.0036   1.3536

          k = 0.0678 0.1957 0.0000 (  5135 PWs)   bands (ev):

   -22.4952 -10.6340  -9.9679  -8.9048  -0.0316   0.7324   1.5413   1.8865

          k = 0.0678 0.2740 0.0000 (  5117 PWs)   bands (ev):

   -21.9172 -11.4556  -9.9732  -9.5850   0.7577   1.5179   2.1859   2.3464

          k = 0.0678 0.3522 0.0000 (  5089 PWs)   bands (ev):

   -21.1559 -13.0595 -10.1817  -9.1208   0.6177   1.8042   2.5954   2.6298

          k = 0.0678 0.4305 0.0000 (  5080 PWs)   bands (ev):

   -20.2248 -14.6527 -10.6375  -8.1269  -0.9541   2.3456   3.1234   3.9050

          k = 0.0678 0.5088 0.0000 (  5058 PWs)   bands (ev):

   -19.1676 -16.1281 -10.9199  -7.1331  -2.3292   2.1734   4.6705   5.4531

          k = 0.0678 0.5871 0.0000 (  5018 PWs)   bands (ev):

   -18.3894 -17.0481 -11.0148  -6.6167  -2.9764   2.1133   6.3570   6.5249

          k = 0.1356 0.2348 0.0000 (  5117 PWs)   bands (ev):

   -22.0132 -11.0301 -10.0813  -9.7587   0.6267   1.3942   2.2135   2.4344

          k = 0.1356 0.3131 0.0000 (  5096 PWs)   bands (ev):

   -21.3452 -12.3436 -10.5792  -9.3260   1.0747   1.5458   2.3180   3.1533

          k = 0.1356 0.3914 0.0000 (  5077 PWs)   bands (ev):

   -20.5007 -13.8155 -11.2040  -8.3984  -0.3940   2.7196   3.4928   3.6669

          k = 0.1356 0.4697 0.0000 (  5084 PWs)   bands (ev):

   -19.5031 -15.2946 -11.6188  -7.3752  -1.8274   3.4291   4.1572   4.8962

          k = 0.1356 0.5479 0.0000 (  5039 PWs)   bands (ev):

   -18.4631 -16.5903 -11.8254  -6.5086  -2.9128   3.3131   5.8001   6.4097

          k = 0.2034 0.3522 0.0000 (  5103 PWs)   bands (ev):

   -20.5935 -13.3352 -11.6204  -8.4919  -0.1709   2.5915   3.3503   4.2271

          k = 0.2034 0.4305 0.0000 (  5084 PWs)   bands (ev):

   -19.6777 -14.5255 -12.3773  -7.5100  -1.4809   3.8851   4.5992   5.1764

          k = 0.2034 0.5088 0.0000 (  5064 PWs)   bands (ev):

   -18.6415 -15.8068 -12.7907  -6.4966  -2.7096   4.9715   5.4288   5.8859

          k = 0.2034 0.5871 0.0000 (  5076 PWs)   bands (ev):

   -17.8715 -16.6729 -12.9218  -5.9258  -3.3571   4.9163   6.4614   6.9441

          k = 0.2712 0.4697 0.0000 (  5062 PWs)   bands (ev):

   -18.7128 -15.3117 -13.3510  -6.5041  -2.6016   5.2744   5.6812   6.9722

          k = 0.2712 0.5479 0.0000 (  5088 PWs)   bands (ev):

   -17.7024 -16.2521 -13.8441  -5.5423  -3.6172   6.0347   6.5402   6.8458

          k = 0.3389 0.5871 0.0000 (  5100 PWs)   bands (ev):

   -16.8400 -16.8400 -14.3143  -4.5667  -4.5667   5.8854   7.3735   7.3735

     the Fermi energy is    -4.5667 ev

!    total energy              =     -22.77850163 Ry
     estimated scf accuracy    <          4.0E-09 Ry
     smearing contrib. (-TS)   =      -0.00005015 Ry
     internal energy E=F+TS    =     -22.77845148 Ry

     The total energy is F=E-TS. E is the sum of the following terms:
     one-electron contribution =    -356.98038315 Ry
     hartree contribution      =     179.03606775 Ry
     xc contribution           =      -6.84471475 Ry
     ewald contribution        =     162.01057867 Ry

     convergence has been achieved in  10 iterations

     Forces acting on atoms (cartesian axes, Ry/au):

     atom    1 type  1   force =     0.00000000    0.00000000    0.00000000
     atom    2 type  1   force =     0.00000000    0.00000000    0.00000000

     Total force =     0.000000     Total SCF correction =     0.000000


     Computing stress (Cartesian axis) and pressure

          total   stress  (Ry/bohr**3)                   (kbar)     P=      -55.12
  -0.00051694  -0.00000000  -0.00000000          -76.04       -0.00       -0.00
  -0.00000000  -0.00051694   0.00000000           -0.00      -76.04        0.00
   0.00000000   0.00000000  -0.00009013            0.00        0.00      -13.26

     Energy error            =      1.7E-02
     Gradient error          =      0.0E+00
     Cell gradient error     =      5.2E-04


     number of scf cycles    =   2
     number of bfgs steps    =   1

     enthalpy old            =     -22.7619383549 Ry
     enthalpy new            =     -22.7785016344 Ry

     CASE: enthalpy_new < enthalpy_old

     new trust radius        =       0.1063124520 bohr
     new conv_thr            =            1.0E-10 Ry

     new unit-cell volume =    794.24211 a.u.^3 (   117.69454 Ang^3 )
     density =      0.33892 g/cm^3

CELL_PARAMETERS (alat=  4.93000000)
   0.965243102   0.000000000   0.000000000
  -0.482621551   0.835925047   0.000000000
   0.000000000   0.000000000   8.215010142

ATOMIC_POSITIONS (crystal)
C             0.3333333333        0.6666666667        0.5000000000
C             0.6666666667        0.3333333333        0.5000000000



     Writing output data file ./work/LiC493.save/
     NEW-OLD atomic charge density approx. for the potential

     negative rho (up, down):  6.722E-06 0.000E+00
     extrapolated charge    7.69590, renormalised to    8.00000

     total cpu time spent up to now is        3.5 secs

     Self-consistent Calculation

     iteration #  1     ecut=    50.00 Ry     beta= 0.70
     Davidson diagonalization with overlap
     c_bands:  2 eigenvalues not converged
     c_bands:  2 eigenvalues not converged
     c_bands:  3 eigenvalues not converged
     c_bands:  2 eigenvalues not converged
     c_bands:  1 eigenvalues not converged
     c_bands:  1 eigenvalues not converged
     c_bands:  1 eigenvalues not converged
     c_bands:  4 eigenvalues not converged
     c_bands:  2 eigenvalues not converged
     c_bands:  2 eigenvalues not converged
     c_bands:  2 eigenvalues not converged
     c_bands:  1 eigenvalues not converged
     c_bands:  1 eigenvalues not converged
     c_bands:  1 eigenvalues not converged
     c_bands:  3 eigenvalues not converged
     c_bands:  2 eigenvalues not converged
     c_bands:  1 eigenvalues not converged
     c_bands:  1 eigenvalues not converged
     c_bands:  2 eigenvalues not converged
     c_bands:  1 eigenvalues not converged
     c_bands:  2 eigenvalues not converged
     c_bands:  1 eigenvalues not converged
     ethr =  1.00E-06,  avg # of iterations = 19.3

     negative rho (up, down):  6.957E-07 0.000E+00

     total cpu time spent up to now is        4.0 secs

     total energy              =     -22.75487357 Ry
     estimated scf accuracy    <       0.01949128 Ry

     iteration #  2     ecut=    50.00 Ry     beta= 0.70
     Davidson diagonalization with overlap
     ethr =  2.44E-04,  avg # of iterations =  9.9

     negative rho (up, down):  1.585E-07 0.000E+00

     total cpu time spent up to now is        4.3 secs

     total energy              =     -22.79219500 Ry
     estimated scf accuracy    <       0.01752635 Ry

     iteration #  3     ecut=    50.00 Ry     beta= 0.70
     Davidson diagonalization with overlap
     ethr =  2.19E-04,  avg # of iterations =  1.0

     total cpu time spent up to now is        4.4 secs

     total energy              =     -22.79087475 Ry
     estimated scf accuracy    <       0.00378496 Ry

     iteration #  4     ecut=    50.00 Ry     beta= 0.70
     Davidson diagonalization with overlap
     ethr =  4.73E-05,  avg # of iterations =  2.7

     total cpu time spent up to now is        4.5 secs

     total energy              =     -22.79130559 Ry
     estimated scf accuracy    <       0.00010343 Ry

     iteration #  5     ecut=    50.00 Ry     beta= 0.70
     Davidson diagonalization with overlap
     c_bands:  1 eigenvalues not converged
     c_bands:  1 eigenvalues not converged
     c_bands:  1 eigenvalues not converged
     ethr =  1.29E-06,  avg # of iterations =  7.6

     total cpu time spent up to now is        4.7 secs

     total energy              =     -22.79133814 Ry
     estimated scf accuracy    <       0.00000738 Ry

     iteration #  6     ecut=    50.00 Ry     beta= 0.70
     Davidson diagonalization with overlap
     ethr =  9.23E-08,  avg # of iterations =  2.4

     total cpu time spent up to now is        4.9 secs

     total energy              =     -22.79132630 Ry
     estimated scf accuracy    <       0.00002226 Ry

     iteration #  7     ecut=    50.00 Ry     beta= 0.70
     Davidson diagonalization with overlap
     ethr =  9.23E-08,  avg # of iterations =  2.7

     total cpu time spent up to now is        5.0 secs

     total energy              =     -22.79133006 Ry
     estimated scf accuracy    <       0.00000078 Ry

     iteration #  8     ecut=    50.00 Ry     beta= 0.70
     Davidson diagonalization with overlap
     ethr =  9.74E-09,  avg # of iterations =  1.1

     total cpu time spent up to now is        5.1 secs

     total energy              =     -22.79133009 Ry
     estimated scf accuracy    <       0.00000047 Ry

     iteration #  9     ecut=    50.00 Ry     beta= 0.70
     Davidson diagonalization with overlap
     ethr =  5.82E-09,  avg # of iterations =  1.5

     total cpu time spent up to now is        5.2 secs

     total energy              =     -22.79133010 Ry
     estimated scf accuracy    <       0.00000002 Ry

     iteration # 10     ecut=    50.00 Ry     beta= 0.70
     Davidson diagonalization with overlap
     ethr =  2.70E-10,  avg # of iterations =  2.6

     total cpu time spent up to now is        5.4 secs

     total energy              =     -22.79133011 Ry
     estimated scf accuracy    <          2.4E-09 Ry

     iteration # 11     ecut=    50.00 Ry     beta= 0.70
     Davidson diagonalization with overlap
     ethr =  3.02E-11,  avg # of iterations =  1.5

     total cpu time spent up to now is        5.5 secs

     total energy              =     -22.79133011 Ry
     estimated scf accuracy    <          1.4E-09 Ry

     iteration # 12     ecut=    50.00 Ry     beta= 0.70
     Davidson diagonalization with overlap
     ethr =  1.70E-11,  avg # of iterations =  2.0

     total cpu time spent up to now is        5.6 secs

     total energy              =     -22.79133011 Ry
     estimated scf accuracy    <          2.6E-10 Ry

     iteration # 13     ecut=    50.00 Ry     beta= 0.70
     Davidson diagonalization with overlap
     ethr =  3.23E-12,  avg # of iterations =  1.1

     total cpu time spent up to now is        5.7 secs

     End of self-consistent calculation

          k = 0.0000 0.0000 0.0000 (  5191 PWs)   bands (ev):

   -23.4589 -11.6301  -7.5261  -7.5261  -0.9653  -0.1976   0.5994   0.9524

          k =-0.0000 0.0798 0.0000 (  5169 PWs)   bands (ev):

   -23.3579 -11.5108  -7.9389  -7.7319  -0.8285  -0.0592   0.7390   1.0912

          k =-0.0000 0.1595 0.0000 (  5157 PWs)   bands (ev):

   -23.0558 -11.1551  -9.0362  -8.2598  -0.4182   0.3555   1.1576   1.5072

          k =-0.0000 0.2393 0.0000 (  5126 PWs)   bands (ev):

   -22.5548 -10.5697 -10.5345  -8.9216   0.2649   1.0441   1.8549   2.1975

          k =-0.0000 0.3190 0.0000 (  5104 PWs)   bands (ev):

   -21.8592 -12.2062  -9.7704  -9.5681   1.2184   1.8597   2.1433   2.8192

          k =-0.0000 0.3988 0.0000 (  5076 PWs)   bands (ev):

   -20.9775 -13.9042 -10.1068  -8.7893   0.2494   2.4149   2.7264   3.2624

          k =-0.0000 0.4785 0.0000 (  5060 PWs)   bands (ev):

   -19.9287 -15.5312 -10.4870  -7.7105  -1.3847   2.4689   3.9423   4.7603

          k =-0.0000 0.5583 0.0000 (  5068 PWs)   bands (ev):

   -18.8104 -16.9478 -10.6842  -6.8151  -2.5759   2.3565   5.6744   6.5025

          k = 0.0691 0.1196 0.0000 (  5147 PWs)   bands (ev):

   -23.1564 -11.2729  -8.6467  -8.1479  -0.5549   0.2174   1.0181   1.3686

          k = 0.0691 0.1994 0.0000 (  5135 PWs)   bands (ev):

   -22.7548 -10.8023  -9.8609  -8.8288  -0.0079   0.7695   1.5763   1.9225

          k = 0.0691 0.2791 0.0000 (  5117 PWs)   bands (ev):

   -22.1565 -11.3889 -10.1093  -9.5430   0.8111   1.5898   2.4128   2.6592

          k = 0.0691 0.3589 0.0000 (  5089 PWs)   bands (ev):

   -21.3675 -13.0427 -10.1681  -9.2144   1.0300   1.8982   2.7101   3.2778

          k = 0.0691 0.4386 0.0000 (  5080 PWs)   bands (ev):

   -20.4002 -14.6912 -10.6448  -8.1686  -0.6407   2.9938   3.2930   4.0711

          k = 0.0691 0.5184 0.0000 (  5058 PWs)   bands (ev):

   -19.2918 -16.2304 -10.9402  -7.1185  -2.1035   2.8530   4.8770   5.6850

          k = 0.0691 0.5981 0.0000 (  5018 PWs)   bands (ev):

   -18.4364 -17.2322 -11.0396  -6.5690  -2.7946   2.7960   6.6376   6.8005

          k = 0.1381 0.2393 0.0000 (  5117 PWs)   bands (ev):

   -22.2559 -10.9387 -10.2228  -9.7302   0.6753   1.4576   2.2742   2.6136

          k = 0.1381 0.3190 0.0000 (  5096 PWs)   bands (ev):

   -21.5639 -12.2867 -10.5888  -9.4301   1.5272   1.6293   2.4198   3.2502

          k = 0.1381 0.3988 0.0000 (  5077 PWs)   bands (ev):

   -20.6879 -13.8103 -11.2358  -8.4552  -0.0337   2.8488   3.6419   4.3481

          k = 0.1381 0.4785 0.0000 (  5084 PWs)   bands (ev):

   -19.6485 -15.3483 -11.6641  -7.3767  -1.5567   4.1132   4.3685   5.1055

          k = 0.1381 0.5583 0.0000 (  5039 PWs)   bands (ev):

   -18.5427 -16.7193 -11.8776  -6.4586  -2.7122   4.0274   6.0533   6.6966

          k = 0.2072 0.3589 0.0000 (  5103 PWs)   bands (ev):

   -20.7846 -13.2879 -11.6880  -8.5538   0.2109   2.7152   3.4930   4.3654

          k = 0.2072 0.4386 0.0000 (  5084 PWs)   bands (ev):

   -19.8327 -14.5178 -12.4740  -7.5205  -1.1754   4.0598   4.7958   5.7465

          k = 0.2072 0.5184 0.0000 (  5064 PWs)   bands (ev):

   -18.7477 -15.8625 -12.8943  -6.4508  -2.4775   5.5948   5.8039   6.1461

          k = 0.2072 0.5981 0.0000 (  5076 PWs)   bands (ev):

   -17.9091 -16.8029 -13.0266  -5.8448  -3.1663   5.6777   6.7513   7.2796

          k = 0.2763 0.4785 0.0000 (  5062 PWs)   bands (ev):

   -18.8267 -15.3025 -13.5137  -6.4607  -2.3538   5.5082   5.9289   7.2234

          k = 0.2763 0.5583 0.0000 (  5088 PWs)   bands (ev):

   -17.7601 -16.2877 -14.0302  -5.4452  -3.4248   6.2834   7.0698   7.4352

          k = 0.3453 0.5981 0.0000 (  5100 PWs)   bands (ev):

   -16.8590 -16.8590 -14.5608  -4.4193  -4.4193   6.1143   7.9880   7.9880

     the Fermi energy is    -4.4193 ev

!    total energy              =     -22.79133011 Ry
     estimated scf accuracy    <          6.5E-11 Ry
     smearing contrib. (-TS)   =      -0.00005015 Ry
     internal energy E=F+TS    =     -22.79127996 Ry

     The total energy is F=E-TS. E is the sum of the following terms:
     one-electron contribution =    -370.71687730 Ry
     hartree contribution      =     185.93734449 Ry
     xc contribution           =      -6.92153329 Ry
     ewald contribution        =     168.90978614 Ry

     convergence has been achieved in  13 iterations

     Forces acting on atoms (cartesian axes, Ry/au):

     atom    1 type  1   force =     0.00000000    0.00000000    0.00000000
     atom    2 type  1   force =     0.00000000    0.00000000    0.00000000

     Total force =     0.000000     Total SCF correction =     0.000000


     Computing stress (Cartesian axis) and pressure

          total   stress  (Ry/bohr**3)                   (kbar)     P=      -36.20
  -0.00032474  -0.00000000   0.00000000          -47.77       -0.00        0.00
  -0.00000000  -0.00032474  -0.00000000           -0.00      -47.77       -0.00
  -0.00000000   0.00000000  -0.00008885           -0.00        0.00      -13.07

     Energy error            =      1.3E-02
     Gradient error          =      0.0E+00
     Cell gradient error     =      3.2E-04


     number of scf cycles    =   3
     number of bfgs steps    =   2

     enthalpy old            =     -22.7785016344 Ry
     enthalpy new            =     -22.7913301127 Ry

     CASE: enthalpy_new < enthalpy_old

     new trust radius        =       0.1594686779 bohr
     new conv_thr            =            1.0E-10 Ry

     new unit-cell volume =    749.93592 a.u.^3 (   111.12904 Ang^3 )
     density =      0.35894 g/cm^3

CELL_PARAMETERS (alat=  4.93000000)
   0.937934111  -0.000000000   0.000000000
  -0.468967056   0.812274767   0.000000000
   0.000000000   0.000000000   8.215010142

ATOMIC_POSITIONS (crystal)
C             0.3333333333        0.6666666667        0.5000000000
C             0.6666666667        0.3333333333        0.5000000000



     Writing output data file ./work/LiC493.save/
     NEW-OLD atomic charge density approx. for the potential

     negative rho (up, down):  3.002E-05 0.000E+00
     extrapolated charge    7.52818, renormalised to    8.00000

     total cpu time spent up to now is        5.8 secs

     Self-consistent Calculation

     iteration #  1     ecut=    50.00 Ry     beta= 0.70
     Davidson diagonalization with overlap
     c_bands:  2 eigenvalues not converged
     c_bands:  1 eigenvalues not converged
     c_bands:  3 eigenvalues not converged
     c_bands:  3 eigenvalues not converged
     c_bands:  1 eigenvalues not converged
     c_bands:  1 eigenvalues not converged
     c_bands:  1 eigenvalues not converged
     c_bands:  1 eigenvalues not converged
     c_bands:  1 eigenvalues not converged
     c_bands:  3 eigenvalues not converged
     c_bands:  3 eigenvalues not converged
     c_bands:  2 eigenvalues not converged
     c_bands:  2 eigenvalues not converged
     c_bands:  1 eigenvalues not converged
     c_bands:  1 eigenvalues not converged
     c_bands:  1 eigenvalues not converged
     c_bands:  3 eigenvalues not converged
     c_bands:  2 eigenvalues not converged
     c_bands:  1 eigenvalues not converged
     c_bands:  1 eigenvalues not converged
     c_bands:  3 eigenvalues not converged
     c_bands:  2 eigenvalues not converged
     c_bands:  1 eigenvalues not converged
     c_bands:  1 eigenvalues not converged
     c_bands:  2 eigenvalues not converged
     c_bands:  1 eigenvalues not converged
     ethr =  1.00E-06,  avg # of iterations = 19.7

     negative rho (up, down):  7.100E-06 0.000E+00

     total cpu time spent up to now is        6.3 secs

     total energy              =     -22.71866003 Ry
     estimated scf accuracy    <       0.04208947 Ry

     iteration #  2     ecut=    50.00 Ry     beta= 0.70
     Davidson diagonalization with overlap
     ethr =  5.26E-04,  avg # of iterations =  9.9

     negative rho (up, down):  3.225E-06 0.000E+00

     total cpu time spent up to now is        6.6 secs

     total energy              =     -22.79978239 Ry
     estimated scf accuracy    <       0.03841552 Ry

     iteration #  3     ecut=    50.00 Ry     beta= 0.70
     Davidson diagonalization with overlap
     ethr =  4.80E-04,  avg # of iterations =  1.0

     negative rho (up, down):  5.796E-07 0.000E+00

     total cpu time spent up to now is        6.7 secs

     total energy              =     -22.79770170 Ry
     estimated scf accuracy    <       0.00813316 Ry

     iteration #  4     ecut=    50.00 Ry     beta= 0.70
     Davidson diagonalization with overlap
     ethr =  1.02E-04,  avg # of iterations =  2.6

     total cpu time spent up to now is        6.8 secs

     total energy              =     -22.79790817 Ry
     estimated scf accuracy    <       0.00085446 Ry

     iteration #  5     ecut=    50.00 Ry     beta= 0.70
     Davidson diagonalization with overlap
     ethr =  1.07E-05,  avg # of iterations =  6.0

     total cpu time spent up to now is        7.0 secs

     total energy              =     -22.79806702 Ry
     estimated scf accuracy    <       0.00000856 Ry

     iteration #  6     ecut=    50.00 Ry     beta= 0.70
     Davidson diagonalization with overlap
     c_bands:  1 eigenvalues not converged
     ethr =  1.07E-07,  avg # of iterations =  4.2

     total cpu time spent up to now is        7.2 secs

     total energy              =     -22.79805420 Ry
     estimated scf accuracy    <       0.00002697 Ry

     iteration #  7     ecut=    50.00 Ry     beta= 0.70
     Davidson diagonalization with overlap
     ethr =  1.07E-07,  avg # of iterations =  2.4

     total cpu time spent up to now is        7.3 secs

     total energy              =     -22.79805962 Ry
     estimated scf accuracy    <       0.00000040 Ry

     iteration #  8     ecut=    50.00 Ry     beta= 0.70
     Davidson diagonalization with overlap
     ethr =  4.96E-09,  avg # of iterations =  1.9

     total cpu time spent up to now is        7.5 secs

     total energy              =     -22.79805953 Ry
     estimated scf accuracy    <       0.00000025 Ry

     iteration #  9     ecut=    50.00 Ry     beta= 0.70
     Davidson diagonalization with overlap
     ethr =  3.09E-09,  avg # of iterations =  2.0

     total cpu time spent up to now is        7.6 secs

     total energy              =     -22.79805957 Ry
     estimated scf accuracy    <          1.3E-09 Ry

     iteration # 10     ecut=    50.00 Ry     beta= 0.70
     Davidson diagonalization with overlap
     ethr =  1.68E-11,  avg # of iterations =  3.7

     total cpu time spent up to now is        7.7 secs

     total energy              =     -22.79805956 Ry
     estimated scf accuracy    <          1.2E-10 Ry

     iteration # 11     ecut=    50.00 Ry     beta= 0.70
     Davidson diagonalization with overlap
     ethr =  1.55E-12,  avg # of iterations =  2.0

     total cpu time spent up to now is        7.8 secs

     End of self-consistent calculation

          k = 0.0000 0.0000 0.0000 (  5191 PWs)   bands (ev):

   -23.8960 -11.9585  -7.2666  -7.2666  -0.9813  -0.1970   0.5981   0.9510

          k = 0.0000 0.0821 0.0000 (  5169 PWs)   bands (ev):

   -23.7898 -11.8305  -7.6913  -7.4922  -0.8366  -0.0501   0.7459   1.0982

          k = 0.0000 0.1641 0.0000 (  5157 PWs)   bands (ev):

   -23.4719 -11.4488  -8.8256  -8.0680  -0.4026   0.3898   1.1892   1.5395

          k = 0.0000 0.2462 0.0000 (  5126 PWs)   bands (ev):

   -22.9445 -10.8203 -10.3842  -8.7866   0.3204   1.1208   1.9279   2.2726

          k = 0.0000 0.3283 0.0000 (  5104 PWs)   bands (ev):

   -22.2117 -12.1315  -9.9606  -9.4858   1.3301   2.1095   2.7741   2.9601

          k = 0.0000 0.4104 0.0000 (  5076 PWs)   bands (ev):

   -21.2809 -13.9136 -10.0670  -8.9030   0.8302   2.6181   3.4803   3.7508

          k = 0.0000 0.4924 0.0000 (  5060 PWs)   bands (ev):

   -20.1671 -15.6316 -10.4767  -7.7347  -0.9604   3.5257   4.2339   5.0705

          k = 0.0000 0.5745 0.0000 (  5068 PWs)   bands (ev):

   -18.9403 -17.1704 -10.6886  -6.7556  -2.2707   3.4393   6.0571   6.9290

          k = 0.0711 0.1231 0.0000 (  5147 PWs)   bands (ev):

   -23.5777 -11.5753  -8.4186  -7.9468  -0.5472   0.2433   1.0414   1.3925

          k = 0.0711 0.2052 0.0000 (  5135 PWs)   bands (ev):

   -23.1551 -11.0701  -9.6748  -8.6860   0.0316   0.8291   1.6327   1.9801

          k = 0.0711 0.2873 0.0000 (  5117 PWs)   bands (ev):

   -22.5251 -11.2691 -10.3253  -9.4552   0.8987   1.7020   2.5191   2.8524

          k = 0.0711 0.3693 0.0000 (  5089 PWs)   bands (ev):

   -21.6932 -13.0030 -10.1258  -9.3619   1.6904   2.0506   2.8985   3.6965

          k = 0.0711 0.4514 0.0000 (  5080 PWs)   bands (ev):

   -20.6698 -14.7389 -10.6363  -8.2323  -0.1370   3.4699   4.1281   4.3383

          k = 0.0711 0.5335 0.0000 (  5058 PWs)   bands (ev):

   -19.4826 -16.3773 -10.9527  -7.0907  -1.7421   3.9441   5.2146   6.0574

          k = 0.0711 0.6156 0.0000 (  5018 PWs)   bands (ev):

   -18.4886 -17.5247 -11.0592  -6.4869  -2.5052   3.8971   7.0898   7.2454

          k = 0.1422 0.2462 0.0000 (  5117 PWs)   bands (ev):

   -22.6298 -10.7787 -10.4474  -9.6648   0.7551   1.5594   2.3719   2.7133

          k = 0.1422 0.3283 0.0000 (  5096 PWs)   bands (ev):

   -21.9006 -12.1836 -10.5829  -9.5946   1.7654   2.2533   2.5902   3.4063

          k = 0.1422 0.4104 0.0000 (  5077 PWs)   bands (ev):

   -20.9755 -13.7909 -11.2637  -8.5434   0.5485   3.0579   3.8818   4.7322

          k = 0.1422 0.4924 0.0000 (  5084 PWs)   bands (ev):

   -19.8714 -15.4220 -11.7130  -7.3756  -1.1202   4.6151   5.2998   5.4421

          k = 0.1422 0.5745 0.0000 (  5039 PWs)   bands (ev):

   -18.6607 -16.9132 -11.9373  -6.3732  -2.3905   5.1722   6.4636   7.1586

          k = 0.2132 0.3693 0.0000 (  5103 PWs)   bands (ev):

   -21.0781 -13.1981 -11.7762  -8.6502   0.8302   2.9161   3.7225   4.5880

          k = 0.2132 0.4514 0.0000 (  5084 PWs)   bands (ev):

   -20.0703 -14.4948 -12.6038  -7.5340  -0.6798   4.3424   5.1123   6.3027

          k = 0.2132 0.5335 0.0000 (  5064 PWs)   bands (ev):

   -18.9088 -15.9430 -13.0309  -6.3730  -2.1015   6.0202   6.5673   6.9652

          k = 0.2132 0.6156 0.0000 (  5076 PWs)   bands (ev):

   -17.9478 -17.0161 -13.1643  -5.7093  -2.8579   6.8869   7.2245   7.8051

          k = 0.2843 0.4924 0.0000 (  5062 PWs)   bands (ev):

   -18.9995 -15.2712 -13.7532  -6.3871  -1.9503   5.8837   6.3298   7.6289

          k = 0.2843 0.5745 0.0000 (  5088 PWs)   bands (ev):

   -17.8409 -16.3375 -14.2999  -5.2842  -3.1108   6.6877   7.6058   9.0820

          k = 0.3554 0.6156 0.0000 (  5100 PWs)   bands (ev):

   -16.8702 -16.8702 -14.9467  -4.1770  -4.1770   6.4860   8.8500   8.8500

     the Fermi energy is    -4.1770 ev

!    total energy              =     -22.79805956 Ry
     estimated scf accuracy    <          5.3E-11 Ry
     smearing contrib. (-TS)   =      -0.00005015 Ry
     internal energy E=F+TS    =     -22.79800941 Ry

     The total energy is F=E-TS. E is the sum of the following terms:
     one-electron contribution =    -392.87592532 Ry
     hartree contribution      =     197.07280980 Ry
     xc contribution           =      -7.04359671 Ry
     ewald contribution        =     180.04870282 Ry

     convergence has been achieved in  11 iterations

     Forces acting on atoms (cartesian axes, Ry/au):

     atom    1 type  1   force =     0.00000000    0.00000000    0.00000000
     atom    2 type  1   force =     0.00000000    0.00000000    0.00000000

     Total force =     0.000000     Total SCF correction =     0.000000


     Computing stress (Cartesian axis) and pressure

          total   stress  (Ry/bohr**3)                   (kbar)     P=       -0.42
   0.00003917  -0.00000000   0.00000000            5.76       -0.00        0.00
  -0.00000000   0.00003917   0.00000000           -0.00        5.76        0.00
   0.00000000   0.00000000  -0.00008696            0.00        0.00      -12.79

     Energy error            =      6.7E-03
     Gradient error          =      0.0E+00
     Cell gradient error     =      3.9E-05


     number of scf cycles    =   4
     number of bfgs steps    =   3

     enthalpy old            =     -22.7913301127 Ry
     enthalpy new            =     -22.7980595624 Ry

     CASE: enthalpy_new < enthalpy_old

     new trust radius        =       0.0167302849 bohr
     new conv_thr            =            1.0E-10 Ry

     new unit-cell volume =    754.52450 a.u.^3 (   111.80899 Ang^3 )
     density =      0.35676 g/cm^3

CELL_PARAMETERS (alat=  4.93000000)
   0.940799170  -0.000000000   0.000000000
  -0.470399585   0.814755981   0.000000000
   0.000000000   0.000000000   8.215010142

ATOMIC_POSITIONS (crystal)
C             0.3333333333        0.6666666667        0.5000000000
C             0.6666666667        0.3333333333        0.5000000000



     Writing output data file ./work/LiC493.save/
     NEW-OLD atomic charge density approx. for the potential

     negative rho (up, down):  2.318E-06 0.000E+00
     extrapolated charge    8.04857, renormalised to    8.00000

     total cpu time spent up to now is        7.9 secs

     Self-consistent Calculation

     iteration #  1     ecut=    50.00 Ry     beta= 0.70
     Davidson diagonalization with overlap
     c_bands:  1 eigenvalues not converged
     c_bands:  1 eigenvalues not converged
     c_bands:  3 eigenvalues not converged
     ethr =  1.00E-06,  avg # of iterations = 14.7

     total cpu time spent up to now is        8.3 secs

     total energy              =     -22.78864328 Ry
     estimated scf accuracy    <       0.00265122 Ry

     iteration #  2     ecut=    50.00 Ry     beta= 0.70
     Davidson diagonalization with overlap
     c_bands:  1 eigenvalues not converged
     c_bands:  1 eigenvalues not converged
     ethr =  3.31E-05,  avg # of iterations = 11.9

     total cpu time spent up to now is        8.6 secs

     total energy              =     -22.79850429 Ry
     estimated scf accuracy    <       0.00217389 Ry

     iteration #  3     ecut=    50.00 Ry     beta= 0.70
     Davidson diagonalization with overlap
     ethr =  2.72E-05,  avg # of iterations =  4.1

     total cpu time spent up to now is        8.8 secs

     total energy              =     -22.79829738 Ry
     estimated scf accuracy    <       0.00055197 Ry

     iteration #  4     ecut=    50.00 Ry     beta= 0.70
     Davidson diagonalization with overlap
     ethr =  6.90E-06,  avg # of iterations =  5.9

     total cpu time spent up to now is        8.9 secs

     total energy              =     -22.79824963 Ry
     estimated scf accuracy    <       0.00022138 Ry

     iteration #  5     ecut=    50.00 Ry     beta= 0.70
     Davidson diagonalization with overlap
     ethr =  2.77E-06,  avg # of iterations =  2.2

     total cpu time spent up to now is        9.1 secs

     total energy              =     -22.79812184 Ry
     estimated scf accuracy    <       0.00015671 Ry

     iteration #  6     ecut=    50.00 Ry     beta= 0.70
     Davidson diagonalization with overlap
     ethr =  1.96E-06,  avg # of iterations =  5.8

     total cpu time spent up to now is        9.2 secs

     total energy              =     -22.79813826 Ry
     estimated scf accuracy    <       0.00000085 Ry

     iteration #  7     ecut=    50.00 Ry     beta= 0.70
     Davidson diagonalization with overlap
     ethr =  1.07E-08,  avg # of iterations =  2.4

     total cpu time spent up to now is        9.4 secs

     total energy              =     -22.79813875 Ry
     estimated scf accuracy    <       0.00000132 Ry

     iteration #  8     ecut=    50.00 Ry     beta= 0.70
     Davidson diagonalization with overlap
     ethr =  1.07E-08,  avg # of iterations =  1.0

     total cpu time spent up to now is        9.5 secs

     total energy              =     -22.79814002 Ry
     estimated scf accuracy    <       0.00000137 Ry

     iteration #  9     ecut=    50.00 Ry     beta= 0.70
     Davidson diagonalization with overlap
     ethr =  1.07E-08,  avg # of iterations =  3.1

     total cpu time spent up to now is        9.6 secs

     total energy              =     -22.79814023 Ry
     estimated scf accuracy    <       0.00000003 Ry

     iteration # 10     ecut=    50.00 Ry     beta= 0.70
     Davidson diagonalization with overlap
     ethr =  3.81E-10,  avg # of iterations =  3.0

     total cpu time spent up to now is        9.8 secs

     total energy              =     -22.79814025 Ry
     estimated scf accuracy    <          3.7E-10 Ry

     iteration # 11     ecut=    50.00 Ry     beta= 0.70
     Davidson diagonalization with overlap
     ethr =  4.68E-12,  avg # of iterations =  3.7

     total cpu time spent up to now is        9.9 secs

     End of self-consistent calculation

          k = 0.0000 0.0000 0.0000 (  5191 PWs)   bands (ev):

   -23.8494 -11.9229  -7.2961  -7.2961  -0.9797  -0.1971   0.5983   0.9512

          k = 0.0000 0.0818 0.0000 (  5169 PWs)   bands (ev):

   -23.7438 -11.7958  -7.7194  -7.5196  -0.8359  -0.0512   0.7453   1.0976

          k = 0.0000 0.1636 0.0000 (  5157 PWs)   bands (ev):

   -23.4276 -11.4170  -8.8495  -8.0901  -0.4044   0.3860   1.1860   1.5361

          k = 0.0000 0.2455 0.0000 (  5126 PWs)   bands (ev):

   -22.9031 -10.7931 -10.4014  -8.8025   0.3142   1.1123   1.9201   2.2645

          k = 0.0000 0.3273 0.0000 (  5104 PWs)   bands (ev):

   -22.1743 -12.1404  -9.9401  -9.4959   1.3177   2.0913   2.6986   2.9458

          k = 0.0000 0.4091 0.0000 (  5076 PWs)   bands (ev):

   -21.2486 -13.9134 -10.0724  -8.8908   0.7670   2.5974   3.4567   3.6392

          k = 0.0000 0.4909 0.0000 (  5060 PWs)   bands (ev):

   -20.1417 -15.6217 -10.4789  -7.7323  -1.0065   3.4123   4.2003   5.0370

          k = 0.0000 0.5728 0.0000 (  5068 PWs)   bands (ev):

   -18.9265 -17.1474 -10.6892  -6.7623  -2.3038   3.3212   6.0152   6.8828

          k = 0.0709 0.1227 0.0000 (  5147 PWs)   bands (ev):

   -23.5329 -11.5425  -8.4444  -7.9699  -0.5482   0.2404   1.0391   1.3900

          k = 0.0709 0.2046 0.0000 (  5135 PWs)   bands (ev):

   -23.1125 -11.0411  -9.6959  -8.7027   0.0272   0.8226   1.6269   1.9740

          k = 0.0709 0.2864 0.0000 (  5117 PWs)   bands (ev):

   -22.4859 -11.2829 -10.3020  -9.4659   0.8890   1.6897   2.5077   2.8399

          k = 0.0709 0.3682 0.0000 (  5089 PWs)   bands (ev):

   -21.6586 -13.0081 -10.1316  -9.3460   1.6188   2.0338   2.8778   3.6770

          k = 0.0709 0.4500 0.0000 (  5080 PWs)   bands (ev):

   -20.6412 -14.7346 -10.6384  -8.2255  -0.1918   3.4419   4.0137   4.3094

          k = 0.0709 0.5319 0.0000 (  5058 PWs)   bands (ev):

   -19.4623 -16.3624 -10.9524  -7.0940  -1.7814   3.8256   5.1774   6.0170

          k = 0.0709 0.6137 0.0000 (  5018 PWs)   bands (ev):

   -18.4843 -17.4931 -11.0582  -6.4961  -2.5366   3.7770   7.0405   7.1968

          k = 0.1417 0.2455 0.0000 (  5117 PWs)   bands (ev):

   -22.5901 -10.7969 -10.4231  -9.6730   0.7462   1.5482   2.3614   2.7026

          k = 0.1417 0.3273 0.0000 (  5096 PWs)   bands (ev):

   -21.8648 -12.1955 -10.5848  -9.5768   1.7504   2.1752   2.5706   3.3895

          k = 0.1417 0.4091 0.0000 (  5077 PWs)   bands (ev):

   -20.9450 -13.7937 -11.2620  -8.5340   0.4849   3.0349   3.8561   4.7064

          k = 0.1417 0.4909 0.0000 (  5084 PWs)   bands (ev):

   -19.8477 -15.4148 -11.7091  -7.3759  -1.1678   4.5806   5.1787   5.4054

          k = 0.1417 0.5728 0.0000 (  5039 PWs)   bands (ev):

   -18.6483 -16.8930 -11.9322  -6.3828  -2.4255   5.0479   6.4187   7.1083

          k = 0.2126 0.3682 0.0000 (  5103 PWs)   bands (ev):

   -21.0470 -13.2087 -11.7678  -8.6398   0.7625   2.8940   3.6979   4.5640

          k = 0.2126 0.4500 0.0000 (  5084 PWs)   bands (ev):

   -20.0451 -14.4979 -12.5912  -7.5327  -0.7340   4.3114   5.0780   6.0276

          k = 0.2126 0.5319 0.0000 (  5064 PWs)   bands (ev):

   -18.8917 -15.9348 -13.0178  -6.3817  -2.1426   5.9777   6.5213   6.8363

          k = 0.2126 0.6137 0.0000 (  5076 PWs)   bands (ev):

   -17.9448 -16.9926 -13.1511  -5.7244  -2.8916   6.7562   7.1725   7.7484

          k = 0.2834 0.4909 0.0000 (  5062 PWs)   bands (ev):

   -18.9812 -15.2756 -13.7284  -6.3954  -1.9945   5.8427   6.2859   7.5850

          k = 0.2834 0.5728 0.0000 (  5088 PWs)   bands (ev):

   -17.8327 -16.3324 -14.2724  -5.3020  -3.1453   6.6434   7.5500   8.4950

          k = 0.3543 0.6137 0.0000 (  5100 PWs)   bands (ev):

   -16.8701 -16.8701 -14.9053  -4.2036  -4.2036   6.4453   8.7622   8.7622

     the Fermi energy is    -4.2036 ev

!    total energy              =     -22.79814025 Ry
     estimated scf accuracy    <          1.5E-11 Ry
     smearing contrib. (-TS)   =      -0.00005015 Ry
     internal energy E=F+TS    =     -22.79809010 Ry

     The total energy is F=E-TS. E is the sum of the following terms:
     one-electron contribution =    -390.45820484 Ry
     hartree contribution      =     195.85768355 Ry
     xc contribution           =      -7.03038945 Ry
     ewald contribution        =     178.83282064 Ry

     convergence has been achieved in  11 iterations

     Forces acting on atoms (cartesian axes, Ry/au):

     atom    1 type  1   force =    -0.00000000   -0.00000000    0.00000000
     atom    2 type  1   force =     0.00000000    0.00000000    0.00000000

     Total force =     0.000000     Total SCF correction =     0.000000


     Computing stress (Cartesian axis) and pressure

          total   stress  (Ry/bohr**3)                   (kbar)     P=       -4.65
  -0.00000378  -0.00000000   0.00000000           -0.56       -0.00        0.00
  -0.00000000  -0.00000378   0.00000000           -0.00       -0.56        0.00
   0.00000000   0.00000000  -0.00008717            0.00        0.00      -12.82

     Energy error            =      8.1E-05
     Gradient error          =      1.8E-26
     Cell gradient error     =      3.8E-06


     number of scf cycles    =   5
     number of bfgs steps    =   4

     enthalpy old            =     -22.7980595624 Ry
     enthalpy new            =     -22.7981402491 Ry

     CASE: enthalpy_new < enthalpy_old

     new trust radius        =       0.0014777846 bohr
     new conv_thr            =            1.0E-10 Ry

     new unit-cell volume =    754.11863 a.u.^3 (   111.74885 Ang^3 )
     density =      0.35695 g/cm^3

CELL_PARAMETERS (alat=  4.93000000)
   0.940546100  -0.000000000   0.000000000
  -0.470273050   0.814536816   0.000000000
   0.000000000   0.000000000   8.215010142

ATOMIC_POSITIONS (crystal)
C             0.3333333333        0.6666666667        0.5000000000
C             0.6666666667        0.3333333333        0.5000000000



     Writing output data file ./work/LiC493.save/
     NEW-OLD atomic charge density approx. for the potential
     extrapolated charge    7.99570, renormalised to    8.00000

     total cpu time spent up to now is       10.0 secs

     Self-consistent Calculation

     iteration #  1     ecut=    50.00 Ry     beta= 0.70
     Davidson diagonalization with overlap
     ethr =  1.00E-06,  avg # of iterations =  6.5

     Threshold (ethr) on eigenvalues was too large:
     Diagonalizing with lowered threshold

     Davidson diagonalization with overlap
     ethr =  6.77E-08,  avg # of iterations =  1.0

     total cpu time spent up to now is       10.3 secs

     total energy              =     -22.79813009 Ry
     estimated scf accuracy    <       0.00000560 Ry

     iteration #  2     ecut=    50.00 Ry     beta= 0.70
     Davidson diagonalization with overlap
     ethr =  7.00E-08,  avg # of iterations =  5.7

     total cpu time spent up to now is       10.5 secs

     total energy              =     -22.79814135 Ry
     estimated scf accuracy    <       0.00000524 Ry

     iteration #  3     ecut=    50.00 Ry     beta= 0.70
     Davidson diagonalization with overlap
     ethr =  6.55E-08,  avg # of iterations =  1.0

     total cpu time spent up to now is       10.6 secs

     total energy              =     -22.79814101 Ry
     estimated scf accuracy    <       0.00000122 Ry

     iteration #  4     ecut=    50.00 Ry     beta= 0.70
     Davidson diagonalization with overlap
     ethr =  1.52E-08,  avg # of iterations =  1.9

     total cpu time spent up to now is       10.7 secs

     total energy              =     -22.79814110 Ry
     estimated scf accuracy    <       0.00000018 Ry

     iteration #  5     ecut=    50.00 Ry     beta= 0.70
     Davidson diagonalization with overlap
     ethr =  2.27E-09,  avg # of iterations =  1.0

     total cpu time spent up to now is       10.8 secs

     total energy              =     -22.79814106 Ry
     estimated scf accuracy    <       0.00000019 Ry

     iteration #  6     ecut=    50.00 Ry     beta= 0.70
     Davidson diagonalization with overlap
     ethr =  2.27E-09,  avg # of iterations =  1.0

     total cpu time spent up to now is       10.9 secs

     total energy              =     -22.79814101 Ry
     estimated scf accuracy    <       0.00000009 Ry

     iteration #  7     ecut=    50.00 Ry     beta= 0.70
     Davidson diagonalization with overlap
     ethr =  1.17E-09,  avg # of iterations =  2.0

     total cpu time spent up to now is       11.0 secs

     total energy              =     -22.79814102 Ry
     estimated scf accuracy    <          8.2E-10 Ry

     iteration #  8     ecut=    50.00 Ry     beta= 0.70
     Davidson diagonalization with overlap
     ethr =  1.02E-11,  avg # of iterations =  2.7

     total cpu time spent up to now is       11.2 secs

     End of self-consistent calculation

          k = 0.0000 0.0000 0.0000 (  5191 PWs)   bands (ev):

   -23.8535 -11.9259  -7.2934  -7.2934  -0.9798  -0.1971   0.5982   0.9511

          k = 0.0000 0.0818 0.0000 (  5169 PWs)   bands (ev):

   -23.7478 -11.7988  -7.7169  -7.5171  -0.8359  -0.0511   0.7452   1.0975

          k = 0.0000 0.1637 0.0000 (  5157 PWs)   bands (ev):

   -23.4314 -11.4197  -8.8473  -8.0881  -0.4043   0.3864   1.1860   1.5362

          k = 0.0000 0.2455 0.0000 (  5126 PWs)   bands (ev):

   -22.9066 -10.7955 -10.3998  -8.8010   0.3147   1.1131   1.9206   2.2651

          k = 0.0000 0.3274 0.0000 (  5104 PWs)   bands (ev):

   -22.1775 -12.1395  -9.9418  -9.4949   1.3188   2.0928   2.7048   2.9471

          k = 0.0000 0.4092 0.0000 (  5076 PWs)   bands (ev):

   -21.2514 -13.9133 -10.0719  -8.8918   0.7726   2.5992   3.4585   3.6491

          k = 0.0000 0.4911 0.0000 (  5060 PWs)   bands (ev):

   -20.1439 -15.6225 -10.4786  -7.7324  -1.0024   3.4224   4.2031   5.0396

          k = 0.0000 0.5729 0.0000 (  5068 PWs)   bands (ev):

   -18.9277 -17.1493 -10.6890  -6.7616  -2.3008   3.3317   6.0189   6.8866

          k = 0.0709 0.1228 0.0000 (  5147 PWs)   bands (ev):

   -23.5368 -11.5453  -8.4420  -7.9678  -0.5481   0.2407   1.0391   1.3901

          k = 0.0709 0.2046 0.0000 (  5135 PWs)   bands (ev):

   -23.1162 -11.0436  -9.6940  -8.7012   0.0276   0.8231   1.6271   1.9744

          k = 0.0709 0.2865 0.0000 (  5117 PWs)   bands (ev):

   -22.4892 -11.2816 -10.3039  -9.4649   0.8899   1.6908   2.5085   2.8408

          k = 0.0709 0.3683 0.0000 (  5089 PWs)   bands (ev):

   -21.6615 -13.0076 -10.1310  -9.3473   1.6252   2.0353   2.8794   3.6783

          k = 0.0709 0.4502 0.0000 (  5080 PWs)   bands (ev):

   -20.6436 -14.7349 -10.6381  -8.2261  -0.1870   3.4444   4.0238   4.3117

          k = 0.0709 0.5320 0.0000 (  5058 PWs)   bands (ev):

   -19.4640 -16.3636 -10.9524  -7.0936  -1.7778   3.8361   5.1806   6.0203

          k = 0.0709 0.6138 0.0000 (  5018 PWs)   bands (ev):

   -18.4846 -17.4958 -11.0582  -6.4952  -2.5337   3.7876   7.0448   7.2010

          k = 0.1418 0.2455 0.0000 (  5117 PWs)   bands (ev):

   -22.5935 -10.7952 -10.4252  -9.6722   0.7470   1.5492   2.3622   2.7034

          k = 0.1418 0.3274 0.0000 (  5096 PWs)   bands (ev):

   -21.8679 -12.1944 -10.5845  -9.5783   1.7518   2.1822   2.5719   3.3908

          k = 0.1418 0.4092 0.0000 (  5077 PWs)   bands (ev):

   -20.9476 -13.7934 -11.2621  -8.5347   0.4906   3.0370   3.8579   4.7086

          k = 0.1418 0.4911 0.0000 (  5084 PWs)   bands (ev):

   -19.8497 -15.4153 -11.7093  -7.3758  -1.1636   4.5837   5.1894   5.4086

          k = 0.1418 0.5729 0.0000 (  5039 PWs)   bands (ev):

   -18.6493 -16.8947 -11.9325  -6.3819  -2.4223   5.0589   6.4226   7.1126

          k = 0.2126 0.3683 0.0000 (  5103 PWs)   bands (ev):

   -21.0496 -13.2077 -11.7684  -8.6407   0.7685   2.8960   3.6996   4.5659

          k = 0.2126 0.4502 0.0000 (  5084 PWs)   bands (ev):

   -20.0472 -14.4976 -12.5922  -7.5327  -0.7292   4.3142   5.0808   6.0304

          k = 0.2126 0.5320 0.0000 (  5064 PWs)   bands (ev):

   -18.8931 -15.9354 -13.0189  -6.3808  -2.1389   5.9814   6.5253   6.8477

          k = 0.2126 0.6138 0.0000 (  5076 PWs)   bands (ev):

   -17.9450 -16.9946 -13.1522  -5.7230  -2.8885   6.7678   7.1771   7.7534

          k = 0.2835 0.4911 0.0000 (  5062 PWs)   bands (ev):

   -18.9827 -15.2751 -13.7305  -6.3946  -1.9905   5.8463   6.2898   7.5884

          k = 0.2835 0.5729 0.0000 (  5088 PWs)   bands (ev):

   -17.8333 -16.3328 -14.2747  -5.3003  -3.1422   6.6473   7.5549   8.5062

          k = 0.3544 0.6138 0.0000 (  5100 PWs)   bands (ev):

   -16.8700 -16.8700 -14.9088  -4.2012  -4.2012   6.4489   8.7700   8.7700

     the Fermi energy is    -4.2012 ev

!    total energy              =     -22.79814103 Ry
     estimated scf accuracy    <          7.8E-11 Ry
     smearing contrib. (-TS)   =      -0.00005015 Ry
     internal energy E=F+TS    =     -22.79809087 Ry

     The total energy is F=E-TS. E is the sum of the following terms:
     one-electron contribution =    -390.67081432 Ry
     hartree contribution      =     195.96451307 Ry
     xc contribution           =      -7.03154697 Ry
     ewald contribution        =     178.93975735 Ry

     convergence has been achieved in   8 iterations

     Forces acting on atoms (cartesian axes, Ry/au):

     atom    1 type  1   force =     0.00000000    0.00000000    0.00000000
     atom    2 type  1   force =     0.00000000    0.00000000    0.00000000

     Total force =     0.000000     Total SCF correction =     0.000000


     Computing stress (Cartesian axis) and pressure

          total   stress  (Ry/bohr**3)                   (kbar)     P=       -4.28
  -0.00000004   0.00000000   0.00000000           -0.01        0.00        0.00
   0.00000000  -0.00000004  -0.00000000            0.00       -0.01       -0.00
   0.00000000  -0.00000000  -0.00008720            0.00       -0.00      -12.83

     Energy error            =      7.8E-07
     Gradient error          =      0.0E+00
     Cell gradient error     =      3.9E-08


     number of scf cycles    =   6
     number of bfgs steps    =   5

     enthalpy old            =     -22.7981402491 Ry
     enthalpy new            =     -22.7981410251 Ry

     CASE: enthalpy_new < enthalpy_old

     small trust_radius: resetting bfgs history

     new trust radius        =       0.0000054140 bohr
     new conv_thr            =            1.0E-10 Ry

     new unit-cell volume =    754.11714 a.u.^3 (   111.74863 Ang^3 )
     density =      0.35695 g/cm^3

CELL_PARAMETERS (alat=  4.93000000)
   0.940545173  -0.000000000   0.000000000
  -0.470272586   0.814536013   0.000000000
   0.000000000   0.000000000   8.215010142

ATOMIC_POSITIONS (crystal)
C             0.3333333333        0.6666666667        0.5000000000
C             0.6666666667        0.3333333333        0.5000000000



     Writing output data file ./work/LiC493.save/
     NEW-OLD atomic charge density approx. for the potential
     extrapolated charge    7.99998, renormalised to    8.00000

     total cpu time spent up to now is       11.2 secs

     Self-consistent Calculation

     iteration #  1     ecut=    50.00 Ry     beta= 0.70
     Davidson diagonalization with overlap
     ethr =  1.00E-06,  avg # of iterations =  1.0

     Threshold (ethr) on eigenvalues was too large:
     Diagonalizing with lowered threshold

     Davidson diagonalization with overlap
     ethr =  1.98E-12,  avg # of iterations =  1.9

     total cpu time spent up to now is       11.5 secs

     total energy              =     -22.79814102 Ry
     estimated scf accuracy    <          1.7E-10 Ry

     iteration #  2     ecut=    50.00 Ry     beta= 0.70
     Davidson diagonalization with overlap
     ethr =  2.15E-12,  avg # of iterations =  2.0

     total cpu time spent up to now is       11.6 secs

     End of self-consistent calculation

          k = 0.0000 0.0000 0.0000 (  5191 PWs)   bands (ev):

   -23.8534 -11.9259  -7.2934  -7.2934  -0.9798  -0.1971   0.5982   0.9511

          k = 0.0000 0.0818 0.0000 (  5169 PWs)   bands (ev):

   -23.7477 -11.7988  -7.7168  -7.5170  -0.8359  -0.0511   0.7452   1.0975

          k = 0.0000 0.1637 0.0000 (  5157 PWs)   bands (ev):

   -23.4314 -11.4197  -8.8473  -8.0880  -0.4043   0.3864   1.1861   1.5362

          k = 0.0000 0.2455 0.0000 (  5126 PWs)   bands (ev):

   -22.9066 -10.7954 -10.3997  -8.8009   0.3147   1.1131   1.9207   2.2651

          k = 0.0000 0.3274 0.0000 (  5104 PWs)   bands (ev):

   -22.1774 -12.1395  -9.9418  -9.4948   1.3188   2.0928   2.7048   2.9470

          k = 0.0000 0.4092 0.0000 (  5076 PWs)   bands (ev):

   -21.2514 -13.9133 -10.0718  -8.8917   0.7727   2.5992   3.4585   3.6492

          k = 0.0000 0.4911 0.0000 (  5060 PWs)   bands (ev):

   -20.1438 -15.6225 -10.4786  -7.7324  -1.0023   3.4225   4.2032   5.0396

          k = 0.0000 0.5729 0.0000 (  5068 PWs)   bands (ev):

   -18.9276 -17.1493 -10.6890  -6.7616  -2.3007   3.3318   6.0189   6.8866

          k = 0.0709 0.1228 0.0000 (  5147 PWs)   bands (ev):

   -23.5367 -11.5453  -8.4420  -7.9677  -0.5481   0.2407   1.0391   1.3901

          k = 0.0709 0.2046 0.0000 (  5135 PWs)   bands (ev):

   -23.1161 -11.0436  -9.6939  -8.7011   0.0276   0.8232   1.6271   1.9744

          k = 0.0709 0.2865 0.0000 (  5117 PWs)   bands (ev):

   -22.4892 -11.2815 -10.3039  -9.4648   0.8899   1.6908   2.5085   2.8408

          k = 0.0709 0.3683 0.0000 (  5089 PWs)   bands (ev):

   -21.6615 -13.0075 -10.1309  -9.3473   1.6252   2.0353   2.8794   3.6783

          k = 0.0709 0.4502 0.0000 (  5080 PWs)   bands (ev):

   -20.6436 -14.7348 -10.6381  -8.2260  -0.1869   3.4444   4.0239   4.3117

          k = 0.0709 0.5320 0.0000 (  5058 PWs)   bands (ev):

   -19.4639 -16.3636 -10.9523  -7.0936  -1.7778   3.8362   5.1806   6.0203

          k = 0.0709 0.6138 0.0000 (  5018 PWs)   bands (ev):

   -18.4845 -17.4958 -11.0582  -6.4952  -2.5337   3.7877   7.0448   7.2011

          k = 0.1418 0.2455 0.0000 (  5117 PWs)   bands (ev):

   -22.5934 -10.7952 -10.4251  -9.6721   0.7470   1.5492   2.3622   2.7034

          k = 0.1418 0.3274 0.0000 (  5096 PWs)   bands (ev):

   -21.8679 -12.1943 -10.5845  -9.5783   1.7518   2.1822   2.5719   3.3908

          k = 0.1418 0.4092 0.0000 (  5077 PWs)   bands (ev):

   -20.9475 -13.7933 -11.2620  -8.5347   0.4907   3.0370   3.8579   4.7086

          k = 0.1418 0.4911 0.0000 (  5084 PWs)   bands (ev):

   -19.8497 -15.4153 -11.7093  -7.3757  -1.1635   4.5837   5.1895   5.4086

          k = 0.1418 0.5729 0.0000 (  5039 PWs)   bands (ev):

   -18.6493 -16.8947 -11.9325  -6.3818  -2.4223   5.0590   6.4226   7.1127

          k = 0.2126 0.3683 0.0000 (  5103 PWs)   bands (ev):

   -21.0496 -13.2076 -11.7684  -8.6406   0.7686   2.8960   3.6996   4.5659

          k = 0.2126 0.4502 0.0000 (  5084 PWs)   bands (ev):

   -20.0471 -14.4975 -12.5922  -7.5327  -0.7291   4.3142   5.0808   6.0304

          k = 0.2126 0.5320 0.0000 (  5064 PWs)   bands (ev):

   -18.8931 -15.9354 -13.0188  -6.3808  -2.1388   5.9814   6.5254   6.8478

          k = 0.2126 0.6138 0.0000 (  5076 PWs)   bands (ev):

   -17.9450 -16.9946 -13.1521  -5.7229  -2.8885   6.7679   7.1772   7.7534

          k = 0.2835 0.4911 0.0000 (  5062 PWs)   bands (ev):

   -18.9827 -15.2751 -13.7305  -6.3945  -1.9905   5.8463   6.2899   7.5885

          k = 0.2835 0.5729 0.0000 (  5088 PWs)   bands (ev):

   -17.8333 -16.3327 -14.2747  -5.3003  -3.1421   6.6474   7.5549   8.5062

          k = 0.3544 0.6138 0.0000 (  5100 PWs)   bands (ev):

   -16.8700 -16.8700 -14.9088  -4.2012  -4.2012   6.4489   8.7701   8.7701

     the Fermi energy is    -4.2012 ev

!    total energy              =     -22.79814103 Ry
     estimated scf accuracy    <          6.9E-11 Ry
     smearing contrib. (-TS)   =      -0.00005015 Ry
     internal energy E=F+TS    =     -22.79809087 Ry

     The total energy is F=E-TS. E is the sum of the following terms:
     one-electron contribution =    -390.67159368 Ry
     hartree contribution      =     195.96490537 Ry
     xc contribution           =      -7.03155185 Ry
     ewald contribution        =     178.94014929 Ry

     convergence has been achieved in   2 iterations

     Forces acting on atoms (cartesian axes, Ry/au):

     atom    1 type  1   force =     0.00000000    0.00000000    0.00000000
     atom    2 type  1   force =     0.00000000    0.00000000    0.00000000

     Total force =     0.000000     Total SCF correction =     0.000000


     Computing stress (Cartesian axis) and pressure

          total   stress  (Ry/bohr**3)                   (kbar)     P=       -4.28
  -0.00000002  -0.00000000  -0.00000000           -0.00       -0.00       -0.00
  -0.00000000  -0.00000002   0.00000000           -0.00       -0.00        0.00
   0.00000000   0.00000000  -0.00008720            0.00        0.00      -12.83

     Energy error            =      8.1E-11
     Gradient error          =      0.0E+00
     Cell gradient error     =      2.0E-08


     number of scf cycles    =   7
     number of bfgs steps    =   6

     enthalpy old            =     -22.7981410251 Ry
     enthalpy new            =     -22.7981410252 Ry

     CASE: enthalpy_new < enthalpy_old

     Message from routine bfgs:
     history already reset at previous step: stopping
     small trust_radius: resetting bfgs history

     new trust radius        =       0.0000027634 bohr
     new conv_thr            =            1.0E-10 Ry

     new unit-cell volume =    754.11638 a.u.^3 (   111.74852 Ang^3 )
     density =      0.35695 g/cm^3

CELL_PARAMETERS (alat=  4.93000000)
   0.940544699  -0.000000000   0.000000000
  -0.470272350   0.814535603   0.000000000
   0.000000000   0.000000000   8.215010142

ATOMIC_POSITIONS (crystal)
C             0.3333333333        0.6666666667        0.5000000000
C             0.6666666667        0.3333333333        0.5000000000



     Writing output data file ./work/LiC493.save/
     NEW-OLD atomic charge density approx. for the potential
     extrapolated charge    7.99999, renormalised to    8.00000

     total cpu time spent up to now is       11.7 secs

     Self-consistent Calculation

     iteration #  1     ecut=    50.00 Ry     beta= 0.70
     Davidson diagonalization with overlap
     ethr =  1.00E-06,  avg # of iterations =  1.0

     Threshold (ethr) on eigenvalues was too large:
     Diagonalizing with lowered threshold

     Davidson diagonalization with overlap
     ethr =  8.05E-13,  avg # of iterations =  1.7

     total cpu time spent up to now is       11.9 secs

     End of self-consistent calculation

          k = 0.0000 0.0000 0.0000 (  5191 PWs)   bands (ev):

   -23.8543 -11.9267  -7.2942  -7.2942  -0.9802  -0.1973   0.5984   0.9512

          k = 0.0000 0.0818 0.0000 (  5169 PWs)   bands (ev):

   -23.7486 -11.7996  -7.7177  -7.5179  -0.8364  -0.0513   0.7453   1.0976

          k = 0.0000 0.1637 0.0000 (  5157 PWs)   bands (ev):

   -23.4322 -11.4205  -8.8481  -8.0889  -0.4047   0.3861   1.1862   1.5363

          k = 0.0000 0.2455 0.0000 (  5126 PWs)   bands (ev):

   -22.9075 -10.7962 -10.4006  -8.8018   0.3143   1.1128   1.9208   2.2652

          k = 0.0000 0.3274 0.0000 (  5104 PWs)   bands (ev):

   -22.1783 -12.1403  -9.9425  -9.4957   1.3184   2.0925   2.7041   2.9471

          k = 0.0000 0.4092 0.0000 (  5076 PWs)   bands (ev):

   -21.2522 -13.9142 -10.0727  -8.8925   0.7719   2.5987   3.4582   3.6484

          k = 0.0000 0.4911 0.0000 (  5060 PWs)   bands (ev):

   -20.1447 -15.6233 -10.4794  -7.7332  -1.0031   3.4217   4.2027   5.0394

          k = 0.0000 0.5729 0.0000 (  5068 PWs)   bands (ev):

   -18.9285 -17.1501 -10.6899  -6.7624  -2.3015   3.3309   6.0184   6.8863

          k = 0.0709 0.1228 0.0000 (  5147 PWs)   bands (ev):

   -23.5376 -11.5461  -8.4428  -7.9686  -0.5485   0.2405   1.0392   1.3902

          k = 0.0709 0.2046 0.0000 (  5135 PWs)   bands (ev):

   -23.1170 -11.0444  -9.6948  -8.7020   0.0272   0.8229   1.6272   1.9745

          k = 0.0709 0.2865 0.0000 (  5117 PWs)   bands (ev):

   -22.4900 -11.2824 -10.3047  -9.4657   0.8894   1.6906   2.5087   2.8409

          k = 0.0709 0.3683 0.0000 (  5089 PWs)   bands (ev):

   -21.6623 -13.0084 -10.1318  -9.3481   1.6244   2.0349   2.8791   3.6784

          k = 0.0709 0.4502 0.0000 (  5080 PWs)   bands (ev):

   -20.6444 -14.7357 -10.6389  -8.2268  -0.1877   3.4439   4.0231   4.3114

          k = 0.0709 0.5320 0.0000 (  5058 PWs)   bands (ev):

   -19.4648 -16.3644 -10.9532  -7.0944  -1.7786   3.8354   5.1801   6.0200

          k = 0.0709 0.6138 0.0000 (  5018 PWs)   bands (ev):

   -18.4854 -17.4966 -11.0591  -6.4960  -2.5345   3.7869   7.0443   7.2006

          k = 0.1418 0.2455 0.0000 (  5117 PWs)   bands (ev):

   -22.5943 -10.7960 -10.4259  -9.6730   0.7466   1.5490   2.3623   2.7035

          k = 0.1418 0.3274 0.0000 (  5096 PWs)   bands (ev):

   -21.8687 -12.1952 -10.5853  -9.5791   1.7513   2.1814   2.5716   3.3909

          k = 0.1418 0.4092 0.0000 (  5077 PWs)   bands (ev):

   -20.9484 -13.7942 -11.2629  -8.5355   0.4899   3.0366   3.8576   4.7087

          k = 0.1418 0.4911 0.0000 (  5084 PWs)   bands (ev):

   -19.8505 -15.4161 -11.7102  -7.3765  -1.1643   4.5832   5.1887   5.4083

          k = 0.1418 0.5729 0.0000 (  5039 PWs)   bands (ev):

   -18.6501 -16.8955 -11.9334  -6.3826  -2.4231   5.0582   6.4221   7.1123

          k = 0.2126 0.3683 0.0000 (  5103 PWs)   bands (ev):

   -21.0504 -13.2085 -11.7693  -8.6414   0.7678   2.8956   3.6993   4.5660

          k = 0.2126 0.4502 0.0000 (  5084 PWs)   bands (ev):

   -20.0480 -14.4984 -12.5931  -7.5335  -0.7299   4.3137   5.0805   6.0305

          k = 0.2126 0.5320 0.0000 (  5064 PWs)   bands (ev):

   -18.8939 -15.9362 -13.0197  -6.3816  -2.1396   5.9809   6.5249   6.8470

          k = 0.2126 0.6138 0.0000 (  5076 PWs)   bands (ev):

   -17.9458 -16.9954 -13.1530  -5.7237  -2.8893   6.7671   7.1766   7.7529

          k = 0.2835 0.4911 0.0000 (  5062 PWs)   bands (ev):

   -18.9836 -15.2760 -13.7313  -6.3953  -1.9913   5.8458   6.2894   7.5884

          k = 0.2835 0.5729 0.0000 (  5088 PWs)   bands (ev):

   -17.8341 -16.3336 -14.2755  -5.3011  -3.1429   6.6467   7.5544   8.5055

          k = 0.3544 0.6138 0.0000 (  5100 PWs)   bands (ev):

   -16.8708 -16.8708 -14.9097  -4.2020  -4.2020   6.4483   8.7694   8.7694

     the Fermi energy is    -4.2020 ev

!    total energy              =     -22.79814103 Ry
     estimated scf accuracy    <          7.0E-11 Ry
     smearing contrib. (-TS)   =      -0.00005015 Ry
     internal energy E=F+TS    =     -22.79809087 Ry

     The total energy is F=E-TS. E is the sum of the following terms:
     one-electron contribution =    -390.67208193 Ry
     hartree contribution      =     195.96520523 Ry
     xc contribution           =      -7.03156352 Ry
     ewald contribution        =     178.94034934 Ry

     convergence has been achieved in   1 iterations

     Forces acting on atoms (cartesian axes, Ry/au):

     atom    1 type  1   force =    -0.00000000   -0.00000000    0.00000000
     atom    2 type  1   force =     0.00000000    0.00000000    0.00000000

     Total force =     0.000000     Total SCF correction =     0.000000


     Computing stress (Cartesian axis) and pressure

          total   stress  (Ry/bohr**3)                   (kbar)     P=       -4.27
  -0.00000003  -0.00000000   0.00000000           -0.00       -0.00        0.00
   0.00000000  -0.00000003   0.00000000            0.00       -0.00        0.00
   0.00000000   0.00000000  -0.00008710            0.00        0.00      -12.81

     Message from routine bfgs:
     history already reset at previous step: stopping
     Energy error            =      3.1E-11
     Gradient error          =      1.8E-26
     Cell gradient error     =      2.6E-08


     bfgs converged in   8 scf cycles and   7 bfgs steps
     (criteria: energy <  1.0E-04 Ry, force <  1.0E-08Ry/Bohr, cell <  1.0E-03kbar)

     End of BFGS Geometry Optimization

     Final enthalpy =     -22.7981410251 Ry

     File ./work/LiC493.bfgs deleted, as requested
Begin final coordinates
     new unit-cell volume =    754.11638 a.u.^3 (   111.74852 Ang^3 )
     density =      0.35695 g/cm^3

CELL_PARAMETERS (alat=  4.93000000)
   0.940544699  -0.000000000   0.000000000
  -0.470272350   0.814535603   0.000000000
   0.000000000   0.000000000   8.215010142

ATOMIC_POSITIONS (crystal)
C             0.3333333333        0.6666666667        0.5000000000
C             0.6666666667        0.3333333333        0.5000000000
End final coordinates



     Writing output data file ./work/LiC493.save/

     Final scf calculation at the relaxed structure.
     The G-vectors are recalculated for the final unit cell
     Results may differ from those at the preceding step.
 
     Parallelization info
     --------------------
     sticks:   dense  smooth     PW     G-vecs:    dense   smooth      PW
     Min           9       9      2                 1117     1117     170
     Max          10      10      3                 1146     1146     215
     Sum         301     301     91                36087    36087    6397
 


     bravais-lattice index     =            4
     lattice parameter (alat)  =       4.9300  a.u.
     unit-cell volume          =     754.1164 (a.u.)^3
     number of atoms/cell      =            2
     number of atomic types    =            1
     number of electrons       =         8.00
     number of Kohn-Sham states=            8
     kinetic-energy cutoff     =      50.0000  Ry
     charge density cutoff     =     200.0000  Ry
     scf convergence threshold =      1.0E-10
     mixing beta               =       0.7000
     number of iterations used =            8  plain     mixing
     press convergence thresh. =      1.0E-03
     Exchange-correlation= PBE
                           (   1   4   3   4   0   0   0)

     celldm(1)=   4.930000  celldm(2)=   0.000000  celldm(3)=   8.215010
     celldm(4)=   0.000000  celldm(5)=   0.000000  celldm(6)=   0.000000

     crystal axes: (cart. coord. in units of alat)
               a(1) = (   0.940545  -0.000000   0.000000 )  
               a(2) = (  -0.470272   0.814536   0.000000 )  
               a(3) = (   0.000000   0.000000   8.215010 )  

     reciprocal axes: (cart. coord. in units 2 pi/alat)
               b(1) = (  1.063214  0.613847  0.000000 )  
               b(2) = (  0.000000  1.227693  0.000000 )  
               b(3) = (  0.000000  0.000000  0.121728 )  


     PseudoPot. # 1 for C  read from file:
     /home/yhkim/qe-6.7/pseudo/ONCV1/1.2/C_ONCV_PBE-1.2.upf
     MD5 check sum: 1a5f83a7b1f58d24996abe00ed223ac6
     Pseudo is Norm-conserving, Zval =  4.0
     Generated using ONCVPSP code by D. R. Hamann
     Using radial grid of  602 points,  4 beta functions with: 
                l(1) =   0
                l(2) =   0
                l(3) =   1
                l(4) =   1

     atomic species   valence    mass     pseudopotential
        C              4.00    12.01070     C ( 1.00)

     24 Sym. Ops., with inversion, found



   Cartesian axes

     site n.     atom                  positions (alat units)
         1           C   tau(   1) = (  -0.0000000   0.5430237   4.1075051  )
         2           C   tau(   2) = (   0.4702723   0.2715119   4.1075051  )

     number of k points=    27  Methfessel-Paxton smearing, width (Ry)=  0.0100
                       cart. coord. in units 2pi/alat
        k(    1) = (   0.0000000   0.0000000   0.0000000), wk =   0.0088889
        k(    2) = (   0.0000000   0.0818462   0.0000000), wk =   0.0533333
        k(    3) = (   0.0000000   0.1636925   0.0000000), wk =   0.0533333
        k(    4) = (   0.0000000   0.2455387   0.0000000), wk =   0.0533333
        k(    5) = (   0.0000000   0.3273849   0.0000000), wk =   0.0533333
        k(    6) = (   0.0000000   0.4092311   0.0000000), wk =   0.0533333
        k(    7) = (   0.0000000   0.4910774   0.0000000), wk =   0.0533333
        k(    8) = (   0.0000000   0.5729236   0.0000000), wk =   0.0533333
        k(    9) = (   0.0708809   0.1227693   0.0000000), wk =   0.0533333
        k(   10) = (   0.0708809   0.2046156   0.0000000), wk =   0.1066667
        k(   11) = (   0.0708809   0.2864618   0.0000000), wk =   0.1066667
        k(   12) = (   0.0708809   0.3683080   0.0000000), wk =   0.1066667
        k(   13) = (   0.0708809   0.4501543   0.0000000), wk =   0.1066667
        k(   14) = (   0.0708809   0.5320005   0.0000000), wk =   0.1066667
        k(   15) = (   0.0708809   0.6138467   0.0000000), wk =   0.0533333
        k(   16) = (   0.1417618   0.2455387   0.0000000), wk =   0.0533333
        k(   17) = (   0.1417618   0.3273849   0.0000000), wk =   0.1066667
        k(   18) = (   0.1417618   0.4092311   0.0000000), wk =   0.1066667
        k(   19) = (   0.1417618   0.4910774   0.0000000), wk =   0.1066667
        k(   20) = (   0.1417618   0.5729236   0.0000000), wk =   0.1066667
        k(   21) = (   0.2126427   0.3683080   0.0000000), wk =   0.0533333
        k(   22) = (   0.2126427   0.4501543   0.0000000), wk =   0.1066667
        k(   23) = (   0.2126427   0.5320005   0.0000000), wk =   0.1066667
        k(   24) = (   0.2126427   0.6138467   0.0000000), wk =   0.0533333
        k(   25) = (   0.2835237   0.4910774   0.0000000), wk =   0.0533333
        k(   26) = (   0.2835237   0.5729236   0.0000000), wk =   0.1066667
        k(   27) = (   0.3544046   0.6138467   0.0000000), wk =   0.0177778

     Dense  grid:    36087 G-vectors     FFT dimensions: (  24,  24, 192)

     Estimated max dynamical RAM per process >       1.96 MB

     Estimated total dynamical RAM >      62.62 MB
 ----2D----2D----2D----2D----2D----2D----2D----2D----2D----2D----2D----2D
  The code is running with the 2D cutoff
  Please refer to:
  Sohier, T., Calandra, M., & Mauri, F. (2017), 
  Density functional perturbation theory for gated two-dimensional heterostructu
 res:
  Theoretical developments and application to flexural phonons in graphene.
  Physical Review B, 96(7), 75448. https://doi.org/10.1103/PhysRevB.96.075448
 ----2D----2D----2D----2D----2D----2D----2D----2D----2D----2D----2D----2D

     Initial potential from superposition of free atoms

     starting charge    7.98607, renormalised to    8.00000

     negative rho (up, down):  1.163E-04 0.000E+00
     Starting wfcs are random

     total cpu time spent up to now is       12.0 secs

     Self-consistent Calculation

     iteration #  1     ecut=    50.00 Ry     beta= 0.70
     Davidson diagonalization with overlap
     c_bands:  1 eigenvalues not converged
     c_bands:  2 eigenvalues not converged
     c_bands:  2 eigenvalues not converged
     c_bands:  5 eigenvalues not converged
     c_bands:  4 eigenvalues not converged
     c_bands:  4 eigenvalues not converged
     c_bands:  3 eigenvalues not converged
     c_bands:  2 eigenvalues not converged
     c_bands:  5 eigenvalues not converged
     c_bands:  5 eigenvalues not converged
     c_bands:  4 eigenvalues not converged
     c_bands:  4 eigenvalues not converged
     c_bands:  3 eigenvalues not converged
     c_bands:  3 eigenvalues not converged
     c_bands:  3 eigenvalues not converged
     c_bands:  4 eigenvalues not converged
     c_bands:  4 eigenvalues not converged
     c_bands:  3 eigenvalues not converged
     c_bands:  3 eigenvalues not converged
     c_bands:  2 eigenvalues not converged
     c_bands:  4 eigenvalues not converged
     c_bands:  3 eigenvalues not converged
     c_bands:  3 eigenvalues not converged
     c_bands:  3 eigenvalues not converged
     c_bands:  3 eigenvalues not converged
     c_bands:  3 eigenvalues not converged
     c_bands:  3 eigenvalues not converged
     ethr =  1.00E-06,  avg # of iterations = 22.2

     negative rho (up, down):  2.315E-05 0.000E+00

     total cpu time spent up to now is       12.8 secs

     total energy              =     -22.76039123 Ry
     estimated scf accuracy    <       0.19855482 Ry

     iteration #  2     ecut=    50.00 Ry     beta= 0.70
     Davidson diagonalization with overlap
     ethr =  2.48E-03,  avg # of iterations =  2.4

     negative rho (up, down):  2.999E-06 0.000E+00

     total cpu time spent up to now is       12.9 secs

     total energy              =     -22.79029012 Ry
     estimated scf accuracy    <       0.00234014 Ry

     iteration #  3     ecut=    50.00 Ry     beta= 0.70
     Davidson diagonalization with overlap
     ethr =  2.93E-05,  avg # of iterations =  8.8

     total cpu time spent up to now is       13.1 secs

     total energy              =     -22.79068696 Ry
     estimated scf accuracy    <       0.00017334 Ry

     iteration #  4     ecut=    50.00 Ry     beta= 0.70
     Davidson diagonalization with overlap
     c_bands:  1 eigenvalues not converged
     ethr =  2.17E-06,  avg # of iterations =  6.0

     total cpu time spent up to now is       13.2 secs

     total energy              =     -22.79070137 Ry
     estimated scf accuracy    <       0.00000123 Ry

     iteration #  5     ecut=    50.00 Ry     beta= 0.70
     Davidson diagonalization with overlap
     ethr =  1.54E-08,  avg # of iterations =  3.7

     total cpu time spent up to now is       13.4 secs

     total energy              =     -22.79070295 Ry
     estimated scf accuracy    <       0.00000004 Ry

     iteration #  6     ecut=    50.00 Ry     beta= 0.70
     Davidson diagonalization with overlap
     ethr =  5.18E-10,  avg # of iterations =  2.5

     total cpu time spent up to now is       13.5 secs

     total energy              =     -22.79070297 Ry
     estimated scf accuracy    <          1.1E-09 Ry

     iteration #  7     ecut=    50.00 Ry     beta= 0.70
     Davidson diagonalization with overlap
     ethr =  1.43E-11,  avg # of iterations =  3.0

     total cpu time spent up to now is       13.6 secs

     End of self-consistent calculation

          k = 0.0000 0.0000 0.0000 (  4483 PWs)   bands (ev):

   -23.8656 -11.9298  -7.2812  -7.2812  -0.9829  -0.2036   0.5841   0.9391

          k = 0.0000 0.0818 0.0000 (  4471 PWs)   bands (ev):

   -23.7597 -11.8019  -7.7050  -7.5045  -0.8389  -0.0575   0.7310   1.0856

          k = 0.0000 0.1637 0.0000 (  4489 PWs)   bands (ev):

   -23.4431 -11.4226  -8.8358  -8.0747  -0.4071   0.3801   1.1719   1.5243

          k = 0.0000 0.2455 0.0000 (  4471 PWs)   bands (ev):

   -22.9180 -10.7987 -10.3886  -8.7867   0.3120   1.1069   1.9065   2.2531

          k = 0.0000 0.3274 0.0000 (  4511 PWs)   bands (ev):

   -22.1887 -12.1357  -9.9447  -9.4841   1.3163   2.0878   2.7078   2.9329

          k = 0.0000 0.4092 0.0000 (  4519 PWs)   bands (ev):

   -21.2624 -13.9148 -10.0615  -8.8935   0.7764   2.5971   3.4529   3.6441

          k = 0.0000 0.4911 0.0000 (  4529 PWs)   bands (ev):

   -20.1544 -15.6275 -10.4719  -7.7331  -0.9997   3.4154   4.2003   5.0345

          k = 0.0000 0.5729 0.0000 (  4529 PWs)   bands (ev):

   -18.9377 -17.1559 -10.6818  -6.7618  -2.3000   3.3230   6.0172   6.8823

          k = 0.0709 0.1228 0.0000 (  4503 PWs)   bands (ev):

   -23.5486 -11.5484  -8.4317  -7.9571  -0.5510   0.2343   1.0249   1.3781

          k = 0.0709 0.2046 0.0000 (  4493 PWs)   bands (ev):

   -23.1278 -11.0465  -9.6830  -8.6906   0.0248   0.8169   1.6129   1.9624

          k = 0.0709 0.2865 0.0000 (  4489 PWs)   bands (ev):

   -22.5006 -11.2744 -10.3059  -9.4538   0.8872   1.6849   2.4946   2.8295

          k = 0.0709 0.3683 0.0000 (  4504 PWs)   bands (ev):

   -21.6726 -13.0061 -10.1212  -9.3495   1.6305   2.0329   2.8736   3.6646

          k = 0.0709 0.4502 0.0000 (  4516 PWs)   bands (ev):

   -20.6542 -14.7381 -10.6301  -8.2278  -0.1845   3.4427   4.0192   4.3064

          k = 0.0709 0.5320 0.0000 (  4523 PWs)   bands (ev):

   -19.4742 -16.3693 -10.9453  -7.0953  -1.7760   3.8303   5.1785   6.0157

          k = 0.0709 0.6138 0.0000 (  4530 PWs)   bands (ev):

   -18.4954 -17.5022 -11.0523  -6.4970  -2.5335   3.7809   7.0438   7.2000

          k = 0.1418 0.2455 0.0000 (  4493 PWs)   bands (ev):

   -22.6048 -10.7881 -10.4276  -9.6634   0.7443   1.5432   2.3481   2.6914

          k = 0.1418 0.3274 0.0000 (  4487 PWs)   bands (ev):

   -21.8791 -12.1904 -10.5761  -9.5805   1.7492   2.1892   2.5664   3.3770

          k = 0.1418 0.4092 0.0000 (  4509 PWs)   bands (ev):

   -20.9584 -13.7941 -11.2560  -8.5373   0.4919   3.0348   3.8525   4.6949

          k = 0.1418 0.4911 0.0000 (  4519 PWs)   bands (ev):

   -19.8600 -15.4193 -11.7039  -7.3781  -1.1626   4.5824   5.1896   5.4040

          k = 0.1418 0.5729 0.0000 (  4509 PWs)   bands (ev):

   -18.6591 -16.9013 -11.9276  -6.3839  -2.4207   5.0579   6.4212   7.1102

          k = 0.2126 0.3683 0.0000 (  4489 PWs)   bands (ev):

   -21.0605 -13.2063 -11.7615  -8.6425   0.7724   2.8937   3.6943   4.5518

          k = 0.2126 0.4502 0.0000 (  4499 PWs)   bands (ev):

   -20.0576 -14.4999 -12.5874  -7.5344  -0.7267   4.3123   5.0765   6.0166

          k = 0.2126 0.5320 0.0000 (  4499 PWs)   bands (ev):

   -18.9026 -15.9406 -13.0146  -6.3824  -2.1373   5.9808   6.5230   6.8564

          k = 0.2126 0.6138 0.0000 (  4500 PWs)   bands (ev):

   -17.9543 -17.0002 -13.1481  -5.7232  -2.8876   6.7759   7.1757   7.7554

          k = 0.2835 0.4911 0.0000 (  4487 PWs)   bands (ev):

   -18.9924 -15.2797 -13.7271  -6.3946  -1.9898   5.8452   6.2876   7.5797

          k = 0.2835 0.5729 0.0000 (  4492 PWs)   bands (ev):

   -17.8417 -16.3384 -14.2725  -5.2998  -3.1420   6.6448   7.5568   8.5234

          k = 0.3544 0.6138 0.0000 (  4485 PWs)   bands (ev):

   -16.8771 -16.8771 -14.9068  -4.2000  -4.2000   6.4456   8.7829   8.7829

     the Fermi energy is    -4.2000 ev

!    total energy              =     -22.79070297 Ry
     estimated scf accuracy    <          1.1E-11 Ry
     smearing contrib. (-TS)   =      -0.00005015 Ry
     internal energy E=F+TS    =     -22.79065282 Ry

     The total energy is F=E-TS. E is the sum of the following terms:
     one-electron contribution =    -390.65666815 Ry
     hartree contribution      =     195.95678275 Ry
     xc contribution           =      -7.03111673 Ry
     ewald contribution        =     178.94034931 Ry

     convergence has been achieved in   7 iterations

     Forces acting on atoms (cartesian axes, Ry/au):

     atom    1 type  1   force =     0.00000000    0.00000000    0.00000000
     atom    2 type  1   force =    -0.00000000   -0.00000000    0.00000000

     Total force =     0.000000     Total SCF correction =     0.000000


     Computing stress (Cartesian axis) and pressure

          total   stress  (Ry/bohr**3)                   (kbar)     P=       -9.44
  -0.00004175   0.00000000  -0.00000000           -6.14        0.00       -0.00
   0.00000000  -0.00004175  -0.00000000            0.00       -6.14       -0.00
  -0.00000000  -0.00000000  -0.00010910           -0.00       -0.00      -16.05


     Writing output data file ./work/LiC493.save/
 
     init_run     :      0.13s CPU      0.15s WALL (       2 calls)
     electrons    :     11.87s CPU     12.97s WALL (       9 calls)
     update_pot   :      0.09s CPU      0.10s WALL (       7 calls)
     forces       :      0.08s CPU      0.09s WALL (       9 calls)
     stress       :      0.22s CPU      0.23s WALL (       9 calls)

     Called by init_run:
     wfcinit      :      0.09s CPU      0.10s WALL (       2 calls)
     potinit      :      0.01s CPU      0.01s WALL (       2 calls)
     hinit0       :      0.01s CPU      0.01s WALL (       2 calls)

     Called by electrons:
     c_bands      :     10.39s CPU     11.18s WALL (      72 calls)
     sum_band     :      1.32s CPU      1.42s WALL (      72 calls)
     v_of_rho     :      0.14s CPU      0.15s WALL (      78 calls)
     mix_rho      :      0.02s CPU      0.02s WALL (      72 calls)

     Called by c_bands:
     init_us_2    :      0.09s CPU      0.10s WALL (    4428 calls)
     cegterg      :     10.14s CPU     10.90s WALL (    1947 calls)

     Called by *egterg:
     cdiaghg      :      0.96s CPU      1.03s WALL (   10710 calls)
     h_psi        :      8.49s CPU      9.13s WALL (   11037 calls)
     g_psi        :      0.03s CPU      0.03s WALL (    9036 calls)

     Called by h_psi:
     h_psi:calbec :      0.34s CPU      0.36s WALL (   11037 calls)
     vloc_psi     :      7.98s CPU      8.58s WALL (   11037 calls)
     add_vuspsi   :      0.08s CPU      0.09s WALL (   11037 calls)

     General routines
     calbec       :      0.37s CPU      0.40s WALL (   12252 calls)
     fft          :      0.13s CPU      0.14s WALL (     853 calls)
     ffts         :      0.01s CPU      0.01s WALL (      72 calls)
     fftw         :      8.67s CPU      9.32s WALL (  125530 calls)
 
     Parallel routines
     fft_scatt_xy :      0.58s CPU      0.62s WALL (  126455 calls)
     fft_scatt_yz :      5.03s CPU      5.41s WALL (  126455 calls)
 
     PWSCF        :     12.48s CPU     13.88s WALL

 
   This run was terminated on:  14:20:11  19Jan2024            

=------------------------------------------------------------------------------=
   JOB DONE.
=------------------------------------------------------------------------------=
