
     Program PWSCF v.6.7MaX starts on 19Jan2024 at 14:21:33 

     This program is part of the open-source Quantum ESPRESSO suite
     for quantum simulation of materials; please cite
         "P. Giannozzi et al., J. Phys.:Condens. Matter 21 395502 (2009);
         "P. Giannozzi et al., J. Phys.:Condens. Matter 29 465901 (2017);
          URL http://www.quantum-espresso.org", 
     in publications or presentations arising from this work. More details at
     http://www.quantum-espresso.org/quote

     Parallel version (MPI), running on    32 processors

     MPI processes distributed on     1 nodes
     R & G space division:  proc/nbgrp/npool/nimage =      32
     Waiting for input...
     Reading input from standard input

     Current dimensions of program PWSCF are:
     Max number of different atomic species (ntypx) = 10
     Max number of k-points (npk) =  40000
     Max angular momentum in pseudopotentials (lmaxx) =  3
     Message from routine read_pp_mesh:
     mesh size missing, using the one in header

     Subspace diagonalization in iterative solution of the eigenvalue problem:
     a serial algorithm will be used

 
     Parallelization info
     --------------------
     sticks:   dense  smooth     PW     G-vecs:    dense   smooth      PW
     Min          10      10      3                 1294     1294     223
     Max          11      11      4                 1323     1323     248
     Sum         349     349    109                41955    41955    7373
 


     bravais-lattice index     =            4
     lattice parameter (alat)  =       5.0000  a.u.
     unit-cell volume          =     876.8507 (a.u.)^3
     number of atoms/cell      =            2
     number of atomic types    =            1
     number of electrons       =         8.00
     number of Kohn-Sham states=            8
     kinetic-energy cutoff     =      50.0000  Ry
     charge density cutoff     =     200.0000  Ry
     scf convergence threshold =      1.0E-08
     mixing beta               =       0.7000
     number of iterations used =            8  plain     mixing
     energy convergence thresh.=      1.0E-04
     force convergence thresh. =      1.0E-08
     press convergence thresh. =      1.0E-03
     Exchange-correlation= PBE
                           (   1   4   3   4   0   0   0)
     nstep                     =           50


     celldm(1)=   5.000000  celldm(2)=   0.000000  celldm(3)=   8.100000
     celldm(4)=   0.000000  celldm(5)=   0.000000  celldm(6)=   0.000000

     crystal axes: (cart. coord. in units of alat)
               a(1) = (   1.000000   0.000000   0.000000 )  
               a(2) = (  -0.500000   0.866025   0.000000 )  
               a(3) = (   0.000000   0.000000   8.100000 )  

     reciprocal axes: (cart. coord. in units 2 pi/alat)
               b(1) = (  1.000000  0.577350  0.000000 )  
               b(2) = (  0.000000  1.154701  0.000000 )  
               b(3) = (  0.000000  0.000000  0.123457 )  


     PseudoPot. # 1 for C  read from file:
     /home/yhkim/qe-6.7/pseudo/ONCV1/1.2/C_ONCV_PBE-1.2.upf
     MD5 check sum: 1a5f83a7b1f58d24996abe00ed223ac6
     Pseudo is Norm-conserving, Zval =  4.0
     Generated using ONCVPSP code by D. R. Hamann
     Using radial grid of  602 points,  4 beta functions with: 
                l(1) =   0
                l(2) =   0
                l(3) =   1
                l(4) =   1

     atomic species   valence    mass     pseudopotential
        C              4.00    12.01070     C ( 1.00)

     24 Sym. Ops., with inversion, found



   Cartesian axes

     site n.     atom                  positions (alat units)
         1           C   tau(   1) = (  -0.0000000   0.5773503   4.0500000  )
         2           C   tau(   2) = (   0.5000000   0.2886751   4.0500000  )

     number of k points=    27  Methfessel-Paxton smearing, width (Ry)=  0.0100
                       cart. coord. in units 2pi/alat
        k(    1) = (   0.0000000   0.0000000   0.0000000), wk =   0.0088889
        k(    2) = (   0.0000000   0.0769800   0.0000000), wk =   0.0533333
        k(    3) = (   0.0000000   0.1539601   0.0000000), wk =   0.0533333
        k(    4) = (   0.0000000   0.2309401   0.0000000), wk =   0.0533333
        k(    5) = (   0.0000000   0.3079201   0.0000000), wk =   0.0533333
        k(    6) = (   0.0000000   0.3849002   0.0000000), wk =   0.0533333
        k(    7) = (   0.0000000   0.4618802   0.0000000), wk =   0.0533333
        k(    8) = (   0.0000000   0.5388603   0.0000000), wk =   0.0533333
        k(    9) = (   0.0666667   0.1154701   0.0000000), wk =   0.0533333
        k(   10) = (   0.0666667   0.1924501   0.0000000), wk =   0.1066667
        k(   11) = (   0.0666667   0.2694301   0.0000000), wk =   0.1066667
        k(   12) = (   0.0666667   0.3464102   0.0000000), wk =   0.1066667
        k(   13) = (   0.0666667   0.4233902   0.0000000), wk =   0.1066667
        k(   14) = (   0.0666667   0.5003702   0.0000000), wk =   0.1066667
        k(   15) = (   0.0666667   0.5773503   0.0000000), wk =   0.0533333
        k(   16) = (   0.1333333   0.2309401   0.0000000), wk =   0.0533333
        k(   17) = (   0.1333333   0.3079201   0.0000000), wk =   0.1066667
        k(   18) = (   0.1333333   0.3849002   0.0000000), wk =   0.1066667
        k(   19) = (   0.1333333   0.4618802   0.0000000), wk =   0.1066667
        k(   20) = (   0.1333333   0.5388603   0.0000000), wk =   0.1066667
        k(   21) = (   0.2000000   0.3464102   0.0000000), wk =   0.0533333
        k(   22) = (   0.2000000   0.4233902   0.0000000), wk =   0.1066667
        k(   23) = (   0.2000000   0.5003702   0.0000000), wk =   0.1066667
        k(   24) = (   0.2000000   0.5773503   0.0000000), wk =   0.0533333
        k(   25) = (   0.2666667   0.4618802   0.0000000), wk =   0.0533333
        k(   26) = (   0.2666667   0.5388603   0.0000000), wk =   0.1066667
        k(   27) = (   0.3333333   0.5773503   0.0000000), wk =   0.0177778

     Dense  grid:    41955 G-vectors     FFT dimensions: (  24,  24, 192)

     Estimated max dynamical RAM per process >       2.13 MB

     Estimated total dynamical RAM >      68.03 MB
 ----2D----2D----2D----2D----2D----2D----2D----2D----2D----2D----2D----2D
  The code is running with the 2D cutoff
  Please refer to:
  Sohier, T., Calandra, M., & Mauri, F. (2017), 
  Density functional perturbation theory for gated two-dimensional heterostructu
 res:
  Theoretical developments and application to flexural phonons in graphene.
  Physical Review B, 96(7), 75448. https://doi.org/10.1103/PhysRevB.96.075448
 ----2D----2D----2D----2D----2D----2D----2D----2D----2D----2D----2D----2D

     Initial potential from superposition of free atoms

     starting charge    7.98607, renormalised to    8.00000

     negative rho (up, down):  1.283E-04 0.000E+00
     Starting wfcs are random

     total cpu time spent up to now is        0.1 secs

     Self-consistent Calculation

     iteration #  1     ecut=    50.00 Ry     beta= 0.70
     Davidson diagonalization with overlap
     ethr =  1.00E-02,  avg # of iterations = 12.0

     negative rho (up, down):  2.283E-07 0.000E+00

     total cpu time spent up to now is        0.5 secs

     total energy              =     -22.72999694 Ry
     estimated scf accuracy    <       0.08654423 Ry

     iteration #  2     ecut=    50.00 Ry     beta= 0.70
     Davidson diagonalization with overlap
     ethr =  1.08E-03,  avg # of iterations =  2.3

     total cpu time spent up to now is        0.7 secs

     total energy              =     -22.74530170 Ry
     estimated scf accuracy    <       0.00190877 Ry

     iteration #  3     ecut=    50.00 Ry     beta= 0.70
     Davidson diagonalization with overlap
     ethr =  2.39E-05,  avg # of iterations =  8.9

     total cpu time spent up to now is        0.9 secs

     total energy              =     -22.74635584 Ry
     estimated scf accuracy    <       0.00009650 Ry

     iteration #  4     ecut=    50.00 Ry     beta= 0.70
     Davidson diagonalization with overlap
     ethr =  1.21E-06,  avg # of iterations =  6.3

     total cpu time spent up to now is        1.2 secs

     total energy              =     -22.74639014 Ry
     estimated scf accuracy    <       0.00000145 Ry

     iteration #  5     ecut=    50.00 Ry     beta= 0.70
     Davidson diagonalization with overlap
     ethr =  1.82E-08,  avg # of iterations =  3.8

     total cpu time spent up to now is        1.3 secs

     total energy              =     -22.74639238 Ry
     estimated scf accuracy    <       0.00000004 Ry

     iteration #  6     ecut=    50.00 Ry     beta= 0.70
     Davidson diagonalization with overlap
     ethr =  5.05E-10,  avg # of iterations =  2.7

     total cpu time spent up to now is        1.5 secs

     End of self-consistent calculation

          k = 0.0000 0.0000 0.0000 (  5287 PWs)   bands (ev):

   -22.7096 -11.0965  -7.8804  -7.8804  -0.9347  -0.1971   0.6049   0.9566

          k = 0.0000 0.0770 0.0000 (  5279 PWs)   bands (ev):

   -22.6174 -10.9912  -8.2819  -8.0574  -0.8105  -0.0722   0.7313   1.0819

          k = 0.0000 0.1540 0.0000 (  5274 PWs)   bands (ev):

   -22.3417 -10.6770  -9.3318  -8.5110  -0.4382   0.3023   1.1107   1.4575

          k = 0.0000 0.2309 0.0000 (  5282 PWs)   bands (ev):

   -21.8849 -10.7420 -10.1616  -9.0855   0.1815   0.9224   1.6956   1.7535

          k = 0.0000 0.3079 0.0000 (  5234 PWs)   bands (ev):

   -21.2521 -12.2928  -9.6479  -9.4574   0.7707   1.0439   1.3316   1.8095

          k = 0.0000 0.3849 0.0000 (  5236 PWs)   bands (ev):

   -20.4535 -13.8539 -10.1221  -8.5987  -0.6824   0.9980   2.1591   2.9177

          k = 0.0000 0.4619 0.0000 (  5246 PWs)   bands (ev):

   -19.5163 -15.3290 -10.4569  -7.6622  -2.0677   0.7610   3.5046   4.2649

          k = 0.0000 0.5389 0.0000 (  5220 PWs)   bands (ev):

   -18.5739 -16.5478 -10.6284  -6.8956  -3.0712   0.6386   5.0696   5.8183

          k = 0.0667 0.1155 0.0000 (  5273 PWs)   bands (ev):

   -22.4334 -10.7812  -8.9675  -8.4138  -0.5622   0.1776   0.9843   1.3326

          k = 0.0667 0.1925 0.0000 (  5273 PWs)   bands (ev):

   -22.0672 -10.3660 -10.1237  -9.0036  -0.0661   0.6758   1.4899   1.8327

          k = 0.0667 0.2694 0.0000 (  5263 PWs)   bands (ev):

   -21.5223 -11.5499  -9.7555  -9.6306   0.6765   1.3173   1.4722   1.9298

          k = 0.0667 0.3464 0.0000 (  5240 PWs)   bands (ev):

   -20.8057 -13.0748 -10.1836  -8.9704  -0.0311   1.5630   1.6781   2.4187

          k = 0.0667 0.4234 0.0000 (  5218 PWs)   bands (ev):

   -19.9338 -14.5791 -10.6057  -8.0574  -1.4476   1.2896   2.8941   3.6458

          k = 0.0667 0.5004 0.0000 (  5224 PWs)   bands (ev):

   -18.9596 -15.9521 -10.8694  -7.1514  -2.6857   1.1077   4.3501   5.0896

          k = 0.0667 0.5774 0.0000 (  5224 PWs)   bands (ev):

   -18.2911 -16.7564 -10.9586  -6.6863  -3.2662   1.0461   5.9150   6.0940

          k = 0.1333 0.2309 0.0000 (  5271 PWs)   bands (ev):

   -21.6127 -11.1624  -9.8553  -9.7837   0.5531   1.2964   1.5882   2.1218

          k = 0.1333 0.3079 0.0000 (  5245 PWs)   bands (ev):

   -20.9835 -12.4227 -10.5432  -9.1590   0.3671   1.4174   2.1611   2.8698

          k = 0.1333 0.3849 0.0000 (  5225 PWs)   bands (ev):

   -20.1905 -13.8136 -11.1310  -8.3063  -0.9584   2.4957   2.5792   3.2602

          k = 0.1333 0.4619 0.0000 (  5213 PWs)   bands (ev):

   -19.2607 -15.1985 -11.5238  -7.3677  -2.2518   2.3116   3.8644   4.5690

          k = 0.1333 0.5389 0.0000 (  5212 PWs)   bands (ev):

   -18.3235 -16.3783 -11.7193  -6.5822  -3.2281   2.1876   5.4033   5.9611

          k = 0.2000 0.3464 0.0000 (  5218 PWs)   bands (ev):

   -20.2769 -13.3957 -11.4932  -8.3904  -0.7652   2.4001   3.1280   4.0140

          k = 0.2000 0.4234 0.0000 (  5210 PWs)   bands (ev):

   -19.4195 -14.5262 -12.2004  -7.4895  -1.9570   3.6100   3.9679   4.2920

          k = 0.2000 0.5004 0.0000 (  5228 PWs)   bands (ev):

   -18.4616 -15.7117 -12.5993  -6.5640  -3.0720   3.7679   5.0447   5.4810

          k = 0.2000 0.5774 0.0000 (  5208 PWs)   bands (ev):

   -17.7883 -16.4716 -12.7254  -6.0472  -3.6543   3.7052   6.0140   6.3852

          k = 0.2667 0.4619 0.0000 (  5224 PWs)   bands (ev):

   -18.5207 -15.3109 -13.0741  -6.5677  -2.9866   4.9015   5.2259   5.2966

          k = 0.2667 0.5389 0.0000 (  5211 PWs)   bands (ev):

   -17.5956 -16.1851 -13.5252  -5.6892  -3.9155   5.2912   5.6501   6.2186

          k = 0.3333 0.5774 0.0000 (  5232 PWs)   bands (ev):

   -16.7893 -16.7893 -13.9154  -4.7939  -4.7939   5.5314   6.2594   6.2594

     the Fermi energy is    -4.7939 ev

!    total energy              =     -22.74639239 Ry
     estimated scf accuracy    <          1.9E-10 Ry
     smearing contrib. (-TS)   =      -0.00005015 Ry
     internal energy E=F+TS    =     -22.74634224 Ry

     The total energy is F=E-TS. E is the sum of the following terms:
     one-electron contribution =    -335.47860646 Ry
     hartree contribution      =     168.23663795 Ry
     xc contribution           =      -6.72298070 Ry
     ewald contribution        =     151.21860696 Ry

     convergence has been achieved in   6 iterations

     Forces acting on atoms (cartesian axes, Ry/au):

     atom    1 type  1   force =     0.00000000    0.00000000    0.00000000
     atom    2 type  1   force =    -0.00000000   -0.00000000    0.00000000

     Total force =     0.000000     Total SCF correction =     0.000000


     Computing stress (Cartesian axis) and pressure

          total   stress  (Ry/bohr**3)                   (kbar)     P=      -78.71
  -0.00075890   0.00000000   0.00000000         -111.64        0.00        0.00
   0.00000000  -0.00075890  -0.00000000            0.00     -111.64       -0.00
   0.00000000  -0.00000000  -0.00008745            0.00       -0.00      -12.86


     BFGS Geometry Optimization
     Energy error            =      0.0E+00
     Gradient error          =      1.7E-26
     Cell gradient error     =      7.6E-04


     number of scf cycles    =   1
     number of bfgs steps    =   0

     enthalpy new            =     -22.7463923946 Ry

     new trust radius        =       0.1123608920 bohr
     new conv_thr            =       0.0000000100 Ry

     new unit-cell volume =    843.89441 a.u.^3 (   125.05225 Ang^3 )
     density =      0.31897 g/cm^3

CELL_PARAMETERS (alat=  5.00000000)
   0.981027596   0.000000000   0.000000000
  -0.490513798   0.849594820   0.000000000
   0.000000000   0.000000000   8.100000000

ATOMIC_POSITIONS (crystal)
C             0.3333333333        0.6666666667        0.5000000000
C             0.6666666667        0.3333333333        0.5000000000



     Writing output data file ./work/LiC500.save/
     NEW-OLD atomic charge density approx. for the potential

     negative rho (up, down):  8.485E-06 0.000E+00
     extrapolated charge    7.68812, renormalised to    8.00000

     total cpu time spent up to now is        1.5 secs

     Self-consistent Calculation

     iteration #  1     ecut=    50.00 Ry     beta= 0.70
     Davidson diagonalization with overlap
     c_bands:  3 eigenvalues not converged
     c_bands:  3 eigenvalues not converged
     c_bands:  4 eigenvalues not converged
     c_bands:  3 eigenvalues not converged
     c_bands:  1 eigenvalues not converged
     c_bands:  1 eigenvalues not converged
     c_bands:  1 eigenvalues not converged
     c_bands:  2 eigenvalues not converged
     c_bands:  4 eigenvalues not converged
     c_bands:  2 eigenvalues not converged
     c_bands:  2 eigenvalues not converged
     c_bands:  2 eigenvalues not converged
     c_bands:  1 eigenvalues not converged
     c_bands:  1 eigenvalues not converged
     c_bands:  1 eigenvalues not converged
     c_bands:  1 eigenvalues not converged
     c_bands:  2 eigenvalues not converged
     c_bands:  1 eigenvalues not converged
     c_bands:  2 eigenvalues not converged
     c_bands:  2 eigenvalues not converged
     c_bands:  1 eigenvalues not converged
     ethr =  1.00E-06,  avg # of iterations = 19.4

     negative rho (up, down):  1.020E-06 0.000E+00

     total cpu time spent up to now is        2.1 secs

     total energy              =     -22.73286594 Ry
     estimated scf accuracy    <       0.01971385 Ry

     iteration #  2     ecut=    50.00 Ry     beta= 0.70
     Davidson diagonalization with overlap
     ethr =  2.46E-04,  avg # of iterations = 10.5

     negative rho (up, down):  2.340E-07 0.000E+00

     total cpu time spent up to now is        2.3 secs

     total energy              =     -22.76992567 Ry
     estimated scf accuracy    <       0.01719776 Ry

     iteration #  3     ecut=    50.00 Ry     beta= 0.70
     Davidson diagonalization with overlap
     ethr =  2.15E-04,  avg # of iterations =  1.0

     total cpu time spent up to now is        2.4 secs

     total energy              =     -22.76863134 Ry
     estimated scf accuracy    <       0.00370418 Ry

     iteration #  4     ecut=    50.00 Ry     beta= 0.70
     Davidson diagonalization with overlap
     ethr =  4.63E-05,  avg # of iterations =  4.4

     total cpu time spent up to now is        2.6 secs

     total energy              =     -22.76907058 Ry
     estimated scf accuracy    <       0.00009050 Ry

     iteration #  5     ecut=    50.00 Ry     beta= 0.70
     Davidson diagonalization with overlap
     ethr =  1.13E-06,  avg # of iterations =  7.0

     total cpu time spent up to now is        2.8 secs

     total energy              =     -22.76909801 Ry
     estimated scf accuracy    <       0.00000673 Ry

     iteration #  6     ecut=    50.00 Ry     beta= 0.70
     Davidson diagonalization with overlap
     ethr =  8.42E-08,  avg # of iterations =  1.9

     total cpu time spent up to now is        2.9 secs

     total energy              =     -22.76909159 Ry
     estimated scf accuracy    <       0.00001315 Ry

     iteration #  7     ecut=    50.00 Ry     beta= 0.70
     Davidson diagonalization with overlap
     ethr =  8.42E-08,  avg # of iterations =  2.0

     total cpu time spent up to now is        3.0 secs

     total energy              =     -22.76909352 Ry
     estimated scf accuracy    <       0.00000060 Ry

     iteration #  8     ecut=    50.00 Ry     beta= 0.70
     Davidson diagonalization with overlap
     ethr =  7.55E-09,  avg # of iterations =  1.2

     total cpu time spent up to now is        3.2 secs

     total energy              =     -22.76909358 Ry
     estimated scf accuracy    <       0.00000046 Ry

     iteration #  9     ecut=    50.00 Ry     beta= 0.70
     Davidson diagonalization with overlap
     ethr =  5.71E-09,  avg # of iterations =  1.6

     total cpu time spent up to now is        3.3 secs

     End of self-consistent calculation

          k = 0.0000 0.0000 0.0000 (  5287 PWs)   bands (ev):

   -22.9977 -11.2985  -7.7569  -7.7569  -0.9468  -0.1971   0.6037   0.9558

          k =-0.0000 0.0785 0.0000 (  5279 PWs)   bands (ev):

   -22.9022 -11.1880  -8.1618  -7.9451  -0.8179  -0.0671   0.7351   1.0862

          k =-0.0000 0.1569 0.0000 (  5274 PWs)   bands (ev):

   -22.6164 -10.8582  -9.2275  -8.4261  -0.4313   0.3225   1.1291   1.4769

          k =-0.0000 0.2354 0.0000 (  5282 PWs)   bands (ev):

   -22.1428 -10.6698 -10.3167  -9.0334   0.2122   0.9683   1.7852   2.1228

          k =-0.0000 0.3139 0.0000 (  5234 PWs)   bands (ev):

   -21.4860 -12.2651  -9.6268  -9.5765   1.1094   1.2118   1.9015   1.9601

          k =-0.0000 0.3923 0.0000 (  5236 PWs)   bands (ev):

   -20.6555 -13.8781 -10.1256  -8.6720  -0.3333   1.6324   2.2719   3.0471

          k =-0.0000 0.4708 0.0000 (  5246 PWs)   bands (ev):

   -19.6757 -15.4110 -10.4776  -7.6824  -1.8115   1.4028   3.6672   4.4513

          k =-0.0000 0.5493 0.0000 (  5220 PWs)   bands (ev):

   -18.6677 -16.7035 -10.6581  -6.8675  -2.8843   1.2820   5.2958   6.0761

          k = 0.0680 0.1177 0.0000 (  5273 PWs)   bands (ev):

   -22.7116 -10.9675  -8.8543  -8.3235  -0.5601   0.1927   0.9978   1.3468

          k = 0.0680 0.1962 0.0000 (  5273 PWs)   bands (ev):

   -22.3318 -10.5315 -10.0309  -8.9473  -0.0449   0.7112   1.5232   1.8670

          k = 0.0680 0.2746 0.0000 (  5263 PWs)   bands (ev):

   -21.7665 -11.4943  -9.8900  -9.6071   0.7264   1.4721   1.8795   2.3079

          k = 0.0680 0.3531 0.0000 (  5240 PWs)   bands (ev):

   -21.0223 -13.0675 -10.1873  -9.0637   0.3661   1.7473   2.2295   2.5277

          k = 0.0680 0.4316 0.0000 (  5218 PWs)   bands (ev):

   -20.1138 -14.6264 -10.6296  -8.1009  -1.1456   1.9407   3.0337   3.8057

          k = 0.0680 0.5100 0.0000 (  5224 PWs)   bands (ev):

   -19.0885 -16.0625 -10.9055  -7.1412  -2.4670   1.7626   4.5467   5.3136

          k = 0.0680 0.5885 0.0000 (  5224 PWs)   bands (ev):

   -18.3546 -16.9365 -10.9989  -6.6451  -3.0887   1.7016   6.1865   6.3586

          k = 0.1359 0.2354 0.0000 (  5271 PWs)   bands (ev):

   -21.8604 -11.0837  -9.9949  -9.7726   0.5983   1.3572   2.1057   2.1798

          k = 0.1359 0.3139 0.0000 (  5245 PWs)   bands (ev):

   -21.2072 -12.3762 -10.5698  -9.2625   0.8001   1.4962   2.2580   3.0970

          k = 0.1359 0.3923 0.0000 (  5225 PWs)   bands (ev):

   -20.3825 -13.8164 -11.1806  -8.3643  -0.6136   2.6417   3.2424   3.4036

          k = 0.1359 0.4708 0.0000 (  5213 PWs)   bands (ev):

   -19.4107 -15.2592 -11.5870  -7.3729  -1.9920   3.0006   4.0431   4.7706

          k = 0.1359 0.5493 0.0000 (  5212 PWs)   bands (ev):

   -18.4108 -16.5105 -11.7893  -6.5384  -3.0345   2.8786   5.6471   6.2369

          k = 0.2039 0.3531 0.0000 (  5218 PWs)   bands (ev):

   -20.4728 -13.3602 -11.5751  -8.4533  -0.4015   2.5176   3.2652   4.1462

          k = 0.2039 0.4316 0.0000 (  5210 PWs)   bands (ev):

   -19.5793 -14.5273 -12.3136  -7.5030  -1.6660   3.7799   4.4812   4.7162

          k = 0.2039 0.5100 0.0000 (  5228 PWs)   bands (ev):

   -18.5734 -15.7718 -12.7222  -6.5237  -2.8507   4.5111   5.2779   5.7297

          k = 0.2039 0.5885 0.0000 (  5208 PWs)   bands (ev):

   -17.8418 -16.5950 -12.8506  -5.9739  -3.4719   4.4494   6.2883   6.7344

          k = 0.2718 0.4708 0.0000 (  5224 PWs)   bands (ev):

   -18.6400 -15.3142 -13.2483  -6.5296  -2.7517   5.1322   5.5328   6.8233

          k = 0.2718 0.5493 0.0000 (  5211 PWs)   bands (ev):

   -17.6627 -16.2273 -13.7254  -5.5999  -3.7337   5.8862   6.0755   6.6060

          k = 0.3398 0.5885 0.0000 (  5232 PWs)   bands (ev):

   -16.8227 -16.8227 -14.1629  -4.6561  -4.6561   5.7489   6.9627   6.9627

     the Fermi energy is    -4.6561 ev

!    total energy              =     -22.76909361 Ry
     estimated scf accuracy    <          6.3E-09 Ry
     smearing contrib. (-TS)   =      -0.00005015 Ry
     internal energy E=F+TS    =     -22.76904346 Ry

     The total energy is F=E-TS. E is the sum of the following terms:
     one-electron contribution =    -348.69629182 Ry
     hartree contribution      =     174.87512080 Ry
     xc contribution           =      -6.79812797 Ry
     ewald contribution        =     157.85025553 Ry

     convergence has been achieved in   9 iterations

     Forces acting on atoms (cartesian axes, Ry/au):

     atom    1 type  1   force =     0.00000000    0.00000000    0.00000000
     atom    2 type  1   force =    -0.00000000   -0.00000000    0.00000000

     Total force =     0.000000     Total SCF correction =     0.000000


     Computing stress (Cartesian axis) and pressure

          total   stress  (Ry/bohr**3)                   (kbar)     P=      -64.34
  -0.00061298   0.00000000   0.00000000          -90.17        0.00        0.00
   0.00000000  -0.00061298  -0.00000000            0.00      -90.17       -0.00
  -0.00000000   0.00000000  -0.00008623           -0.00        0.00      -12.68

     Energy error            =      2.3E-02
     Gradient error          =      1.8E-26
     Cell gradient error     =      6.1E-04


     number of scf cycles    =   2
     number of bfgs steps    =   1

     enthalpy old            =     -22.7463923946 Ry
     enthalpy new            =     -22.7690936087 Ry

     CASE: enthalpy_new < enthalpy_old

     new trust radius        =       0.1235969811 bohr
     new conv_thr            =            1.0E-10 Ry

     new unit-cell volume =    808.37157 a.u.^3 (   119.78831 Ang^3 )
     density =      0.33299 g/cm^3

CELL_PARAMETERS (alat=  5.00000000)
   0.960157952   0.000000000   0.000000000
  -0.480078976   0.831521178   0.000000000
   0.000000000   0.000000000   8.100000000

ATOMIC_POSITIONS (crystal)
C             0.3333333333        0.6666666667        0.5000000000
C             0.6666666667        0.3333333333        0.5000000000



     Writing output data file ./work/LiC500.save/
     NEW-OLD atomic charge density approx. for the potential

     negative rho (up, down):  6.820E-06 0.000E+00
     extrapolated charge    7.64906, renormalised to    8.00000

     total cpu time spent up to now is        3.5 secs

     Self-consistent Calculation

     iteration #  1     ecut=    50.00 Ry     beta= 0.70
     Davidson diagonalization with overlap
     c_bands:  2 eigenvalues not converged
     c_bands:  3 eigenvalues not converged
     c_bands:  3 eigenvalues not converged
     c_bands:  2 eigenvalues not converged
     c_bands:  1 eigenvalues not converged
     c_bands:  1 eigenvalues not converged
     c_bands:  1 eigenvalues not converged
     c_bands:  1 eigenvalues not converged
     c_bands:  2 eigenvalues not converged
     c_bands:  4 eigenvalues not converged
     c_bands:  3 eigenvalues not converged
     c_bands:  2 eigenvalues not converged
     c_bands:  2 eigenvalues not converged
     c_bands:  1 eigenvalues not converged
     c_bands:  1 eigenvalues not converged
     c_bands:  1 eigenvalues not converged
     c_bands:  3 eigenvalues not converged
     c_bands:  2 eigenvalues not converged
     c_bands:  1 eigenvalues not converged
     c_bands:  1 eigenvalues not converged
     c_bands:  3 eigenvalues not converged
     c_bands:  1 eigenvalues not converged
     c_bands:  1 eigenvalues not converged
     c_bands:  1 eigenvalues not converged
     c_bands:  1 eigenvalues not converged
     ethr =  1.00E-06,  avg # of iterations = 19.6

     negative rho (up, down):  7.052E-07 0.000E+00

     total cpu time spent up to now is        4.1 secs

     total energy              =     -22.74162691 Ry
     estimated scf accuracy    <       0.02468771 Ry

     iteration #  2     ecut=    50.00 Ry     beta= 0.70
     Davidson diagonalization with overlap
     ethr =  3.09E-04,  avg # of iterations = 10.0

     negative rho (up, down):  1.500E-07 0.000E+00

     total cpu time spent up to now is        4.3 secs

     total energy              =     -22.78849584 Ry
     estimated scf accuracy    <       0.02190375 Ry

     iteration #  3     ecut=    50.00 Ry     beta= 0.70
     Davidson diagonalization with overlap
     ethr =  2.74E-04,  avg # of iterations =  1.0

     total cpu time spent up to now is        4.4 secs

     total energy              =     -22.78694444 Ry
     estimated scf accuracy    <       0.00469090 Ry

     iteration #  4     ecut=    50.00 Ry     beta= 0.70
     Davidson diagonalization with overlap
     ethr =  5.86E-05,  avg # of iterations =  2.8

     total cpu time spent up to now is        4.6 secs

     total energy              =     -22.78741118 Ry
     estimated scf accuracy    <       0.00017336 Ry

     iteration #  5     ecut=    50.00 Ry     beta= 0.70
     Davidson diagonalization with overlap
     c_bands:  1 eigenvalues not converged
     c_bands:  1 eigenvalues not converged
     c_bands:  1 eigenvalues not converged
     c_bands:  1 eigenvalues not converged
     c_bands:  1 eigenvalues not converged
     ethr =  2.17E-06,  avg # of iterations =  8.7

     total cpu time spent up to now is        4.8 secs

     total energy              =     -22.78745996 Ry
     estimated scf accuracy    <       0.00000623 Ry

     iteration #  6     ecut=    50.00 Ry     beta= 0.70
     Davidson diagonalization with overlap
     ethr =  7.79E-08,  avg # of iterations =  3.1

     total cpu time spent up to now is        4.9 secs

     total energy              =     -22.78744834 Ry
     estimated scf accuracy    <       0.00002277 Ry

     iteration #  7     ecut=    50.00 Ry     beta= 0.70
     Davidson diagonalization with overlap
     ethr =  7.79E-08,  avg # of iterations =  2.7

     total cpu time spent up to now is        5.1 secs

     total energy              =     -22.78745237 Ry
     estimated scf accuracy    <       0.00000052 Ry

     iteration #  8     ecut=    50.00 Ry     beta= 0.70
     Davidson diagonalization with overlap
     ethr =  6.52E-09,  avg # of iterations =  1.4

     total cpu time spent up to now is        5.2 secs

     total energy              =     -22.78745238 Ry
     estimated scf accuracy    <       0.00000031 Ry

     iteration #  9     ecut=    50.00 Ry     beta= 0.70
     Davidson diagonalization with overlap
     ethr =  3.85E-09,  avg # of iterations =  1.9

     total cpu time spent up to now is        5.3 secs

     total energy              =     -22.78745240 Ry
     estimated scf accuracy    <          2.5E-09 Ry

     iteration # 10     ecut=    50.00 Ry     beta= 0.70
     Davidson diagonalization with overlap
     ethr =  3.18E-11,  avg # of iterations =  3.7

     total cpu time spent up to now is        5.5 secs

     total energy              =     -22.78745240 Ry
     estimated scf accuracy    <          8.7E-10 Ry

     iteration # 11     ecut=    50.00 Ry     beta= 0.70
     Davidson diagonalization with overlap
     ethr =  1.08E-11,  avg # of iterations =  1.5

     total cpu time spent up to now is        5.6 secs

     total energy              =     -22.78745240 Ry
     estimated scf accuracy    <          8.9E-10 Ry

     iteration # 12     ecut=    50.00 Ry     beta= 0.70
     Davidson diagonalization with overlap
     ethr =  1.08E-11,  avg # of iterations =  1.9

     total cpu time spent up to now is        5.7 secs

     End of self-consistent calculation

          k = 0.0000 0.0000 0.0000 (  5287 PWs)   bands (ev):

   -23.3225 -11.5314  -7.5970  -7.5970  -0.9595  -0.1966   0.6026   0.9551

          k =-0.0000 0.0802 0.0000 (  5279 PWs)   bands (ev):

   -23.2232 -11.4148  -8.0078  -7.7985  -0.8251  -0.0607   0.7397   1.0914

          k =-0.0000 0.1603 0.0000 (  5274 PWs)   bands (ev):

   -22.9258 -11.0668  -9.0952  -8.3122  -0.4218   0.3466   1.1510   1.4999

          k =-0.0000 0.2405 0.0000 (  5282 PWs)   bands (ev):

   -22.4329 -10.5769 -10.4949  -8.9584   0.2495   1.0224   1.8361   2.1779

          k =-0.0000 0.3207 0.0000 (  5234 PWs)   bands (ev):

   -21.7488 -12.2249  -9.7126  -9.5882   1.1862   1.6974   2.0412   2.6687

          k =-0.0000 0.4009 0.0000 (  5236 PWs)   bands (ev):

   -20.8821 -13.8978 -10.1161  -8.7545   0.0756   2.3012   2.4741   3.1992

          k =-0.0000 0.4810 0.0000 (  5246 PWs)   bands (ev):

   -19.8537 -15.4971 -10.4884  -7.7025  -1.5118   2.1533   3.8601   4.6692

          k =-0.0000 0.5612 0.0000 (  5220 PWs)   bands (ev):

   -18.7683 -16.8766 -10.6794  -6.8304  -2.6667   2.0379   5.5618   6.3767

          k = 0.0694 0.1203 0.0000 (  5273 PWs)   bands (ev):

   -23.0248 -11.1822  -8.7108  -8.2032  -0.5562   0.2109   1.0140   1.3638

          k = 0.0694 0.2004 0.0000 (  5273 PWs)   bands (ev):

   -22.6297 -10.7220  -9.9135  -8.8672  -0.0187   0.7530   1.5624   1.9078

          k = 0.0694 0.2806 0.0000 (  5263 PWs)   bands (ev):

   -22.0411 -11.4216 -10.0441  -9.5653   0.7861   1.5571   2.3840   2.4471

          k = 0.0694 0.3608 0.0000 (  5240 PWs)   bands (ev):

   -21.2653 -13.0513 -10.1774  -9.1698   0.8319   1.8539   2.6564   2.9720

          k = 0.0694 0.4410 0.0000 (  5218 PWs)   bands (ev):

   -20.3153 -14.6732 -10.6434  -8.1486  -0.7915   2.6920   3.2064   3.9930

          k = 0.0694 0.5211 0.0000 (  5224 PWs)   bands (ev):

   -19.2314 -16.1820 -10.9337  -7.1255  -2.2114   2.5298   4.7787   5.5754

          k = 0.0694 0.6013 0.0000 (  5224 PWs)   bands (ev):

   -18.4140 -17.1443 -11.0319  -6.5925  -2.8821   2.4712   6.5034   6.6692

          k = 0.1389 0.2405 0.0000 (  5271 PWs)   bands (ev):

   -22.1389 -10.9837 -10.1551  -9.7459   0.6526   1.4286   2.2481   2.7167

          k = 0.1389 0.3207 0.0000 (  5245 PWs)   bands (ev):

   -21.4583 -12.3145 -10.5864  -9.3805   1.3102   1.5899   2.3722   3.2070

          k = 0.1389 0.4009 0.0000 (  5225 PWs)   bands (ev):

   -20.5975 -13.8129 -11.2229  -8.4289  -0.2075   2.7876   3.5717   4.0290

          k = 0.1389 0.4810 0.0000 (  5213 PWs)   bands (ev):

   -19.5778 -15.3226 -11.6447  -7.3754  -1.6864   3.7950   4.2610   5.0067

          k = 0.1389 0.5612 0.0000 (  5212 PWs)   bands (ev):

   -18.5038 -16.6585 -11.8548  -6.4830  -2.8075   3.6862   5.9326   6.5605

          k = 0.2083 0.3608 0.0000 (  5218 PWs)   bands (ev):

   -20.6922 -13.3102 -11.6570  -8.5237   0.0281   2.6566   3.4261   4.3023

          k = 0.2083 0.4410 0.0000 (  5210 PWs)   bands (ev):

   -19.7576 -14.5213 -12.4296  -7.5155  -1.3221   3.9768   4.7029   5.5530

          k = 0.2083 0.5211 0.0000 (  5228 PWs)   bands (ev):

   -18.6960 -15.8363 -12.8472  -6.4729  -2.5892   5.3440   5.5778   6.0224

          k = 0.2083 0.6013 0.0000 (  5208 PWs)   bands (ev):

   -17.8904 -16.7401 -12.9775  -5.8837  -3.2567   5.3135   6.6133   7.1206

          k = 0.2777 0.4810 0.0000 (  5224 PWs)   bands (ev):

   -18.7713 -15.3078 -13.4377  -6.4815  -2.4730   5.3969   5.8112   7.1060

          k = 0.2777 0.5612 0.0000 (  5211 PWs)   bands (ev):

   -17.7315 -16.2697 -13.9430  -5.4913  -3.5174   6.1653   6.8636   7.1099

          k = 0.3472 0.6013 0.0000 (  5232 PWs)   bands (ev):

   -16.8495 -16.8495 -14.4439  -4.4908  -4.4908   6.0058   7.7008   7.7008

     the Fermi energy is    -4.4908 ev

!    total energy              =     -22.78745240 Ry
     estimated scf accuracy    <          8.7E-11 Ry
     smearing contrib. (-TS)   =      -0.00005015 Ry
     internal energy E=F+TS    =     -22.78740225 Ry

     The total energy is F=E-TS. E is the sum of the following terms:
     one-electron contribution =    -364.17231177 Ry
     hartree contribution      =     182.64937756 Ry
     xc contribution           =      -6.88512928 Ry
     ewald contribution        =     165.62066123 Ry

     convergence has been achieved in  12 iterations

     Forces acting on atoms (cartesian axes, Ry/au):

     atom    1 type  1   force =     0.00000000    0.00000000    0.00000000
     atom    2 type  1   force =     0.00000000    0.00000000    0.00000000

     Total force =     0.000000     Total SCF correction =     0.000000


     Computing stress (Cartesian axis) and pressure

          total   stress  (Ry/bohr**3)                   (kbar)     P=      -44.61
  -0.00041237   0.00000000   0.00000000          -60.66        0.00        0.00
   0.00000000  -0.00041237   0.00000000            0.00      -60.66        0.00
   0.00000000   0.00000000  -0.00008502            0.00        0.00      -12.51

     Energy error            =      1.8E-02
     Gradient error          =      0.0E+00
     Cell gradient error     =      4.1E-04


     number of scf cycles    =   3
     number of bfgs steps    =   2

     enthalpy old            =     -22.7690936087 Ry
     enthalpy new            =     -22.7874524038 Ry

     CASE: enthalpy_new < enthalpy_old

     new trust radius        =       0.1853954717 bohr
     new conv_thr            =            1.0E-10 Ry

     new unit-cell volume =    756.51944 a.u.^3 (   112.10462 Ang^3 )
     density =      0.35581 g/cm^3

CELL_PARAMETERS (alat=  5.00000000)
   0.928853486   0.000000000   0.000000000
  -0.464426743   0.804410716   0.000000000
   0.000000000   0.000000000   8.100000000

ATOMIC_POSITIONS (crystal)
C             0.3333333333        0.6666666667        0.5000000000
C             0.6666666667        0.3333333333        0.5000000000



     Writing output data file ./work/LiC500.save/
     NEW-OLD atomic charge density approx. for the potential

     negative rho (up, down):  4.864E-05 0.000E+00
     extrapolated charge    7.45263, renormalised to    8.00000

     total cpu time spent up to now is        5.8 secs

     Self-consistent Calculation

     iteration #  1     ecut=    50.00 Ry     beta= 0.70
     Davidson diagonalization with overlap
     c_bands:  1 eigenvalues not converged
     c_bands:  1 eigenvalues not converged
     c_bands:  4 eigenvalues not converged
     c_bands:  4 eigenvalues not converged
     c_bands:  2 eigenvalues not converged
     c_bands:  2 eigenvalues not converged
     c_bands:  1 eigenvalues not converged
     c_bands:  1 eigenvalues not converged
     c_bands:  2 eigenvalues not converged
     c_bands:  4 eigenvalues not converged
     c_bands:  3 eigenvalues not converged
     c_bands:  2 eigenvalues not converged
     c_bands:  2 eigenvalues not converged
     c_bands:  1 eigenvalues not converged
     c_bands:  1 eigenvalues not converged
     c_bands:  2 eigenvalues not converged
     c_bands:  3 eigenvalues not converged
     c_bands:  2 eigenvalues not converged
     c_bands:  1 eigenvalues not converged
     c_bands:  1 eigenvalues not converged
     c_bands:  3 eigenvalues not converged
     c_bands:  3 eigenvalues not converged
     c_bands:  1 eigenvalues not converged
     c_bands:  1 eigenvalues not converged
     c_bands:  2 eigenvalues not converged
     c_bands:  1 eigenvalues not converged
     ethr =  1.00E-06,  avg # of iterations = 19.7

     negative rho (up, down):  1.305E-05 0.000E+00

     total cpu time spent up to now is        6.4 secs

     total energy              =     -22.69903804 Ry
     estimated scf accuracy    <       0.05340924 Ry

     iteration #  2     ecut=    50.00 Ry     beta= 0.70
     Davidson diagonalization with overlap
     ethr =  6.68E-04,  avg # of iterations =  9.9

     negative rho (up, down):  6.429E-06 0.000E+00

     total cpu time spent up to now is        6.6 secs

     total energy              =     -22.80120592 Ry
     estimated scf accuracy    <       0.04816924 Ry

     iteration #  3     ecut=    50.00 Ry     beta= 0.70
     Davidson diagonalization with overlap
     ethr =  6.02E-04,  avg # of iterations =  1.0

     negative rho (up, down):  1.870E-06 0.000E+00

     total cpu time spent up to now is        6.7 secs

     total energy              =     -22.79888667 Ry
     estimated scf accuracy    <       0.01008272 Ry

     iteration #  4     ecut=    50.00 Ry     beta= 0.70
     Davidson diagonalization with overlap
     ethr =  1.26E-04,  avg # of iterations =  2.9

     negative rho (up, down):  1.926E-08 0.000E+00

     total cpu time spent up to now is        6.9 secs

     total energy              =     -22.79892320 Ry
     estimated scf accuracy    <       0.00128235 Ry

     iteration #  5     ecut=    50.00 Ry     beta= 0.70
     Davidson diagonalization with overlap
     ethr =  1.60E-05,  avg # of iterations =  5.6

     total cpu time spent up to now is        7.0 secs

     total energy              =     -22.79915377 Ry
     estimated scf accuracy    <       0.00000684 Ry

     iteration #  6     ecut=    50.00 Ry     beta= 0.70
     Davidson diagonalization with overlap
     ethr =  8.55E-08,  avg # of iterations =  4.7

     total cpu time spent up to now is        7.2 secs

     total energy              =     -22.79915273 Ry
     estimated scf accuracy    <       0.00001021 Ry

     iteration #  7     ecut=    50.00 Ry     beta= 0.70
     Davidson diagonalization with overlap
     ethr =  8.55E-08,  avg # of iterations =  2.0

     total cpu time spent up to now is        7.4 secs

     total energy              =     -22.79915489 Ry
     estimated scf accuracy    <       0.00000023 Ry

     iteration #  8     ecut=    50.00 Ry     beta= 0.70
     Davidson diagonalization with overlap
     ethr =  2.84E-09,  avg # of iterations =  2.0

     total cpu time spent up to now is        7.5 secs

     total energy              =     -22.79915482 Ry
     estimated scf accuracy    <       0.00000015 Ry

     iteration #  9     ecut=    50.00 Ry     beta= 0.70
     Davidson diagonalization with overlap
     ethr =  1.85E-09,  avg # of iterations =  2.0

     total cpu time spent up to now is        7.6 secs

     total energy              =     -22.79915484 Ry
     estimated scf accuracy    <          2.5E-10 Ry

     iteration # 10     ecut=    50.00 Ry     beta= 0.70
     Davidson diagonalization with overlap
     ethr =  3.10E-12,  avg # of iterations =  4.0

     total cpu time spent up to now is        7.8 secs

     End of self-consistent calculation

          k = 0.0000 0.0000 0.0000 (  5287 PWs)   bands (ev):

   -23.8273 -11.9068  -7.3081  -7.3081  -0.9783  -0.1958   0.6009   0.9534

          k =-0.0000 0.0829 0.0000 (  5279 PWs)   bands (ev):

   -23.7219 -11.7803  -7.7316  -7.5320  -0.8349  -0.0504   0.7474   1.0994

          k =-0.0000 0.1658 0.0000 (  5274 PWs)   bands (ev):

   -23.4064 -11.4027  -8.8600  -8.0999  -0.4046   0.3857   1.1869   1.5367

          k =-0.0000 0.2486 0.0000 (  5282 PWs)   bands (ev):

   -22.8832 -10.7815 -10.4095  -8.8105   0.3121   1.1099   1.9191   2.2631

          k =-0.0000 0.3315 0.0000 (  5234 PWs)   bands (ev):

   -22.1562 -12.1438  -9.9305  -9.5003   1.3131   2.0840   2.6638   2.9423

          k =-0.0000 0.4144 0.0000 (  5236 PWs)   bands (ev):

   -21.2329 -13.9129 -10.0760  -8.8851   0.7385   2.5888   3.4473   3.5912

          k =-0.0000 0.4973 0.0000 (  5246 PWs)   bands (ev):

   -20.1292 -15.6169 -10.4816  -7.7312  -1.0272   3.3638   4.1865   5.0232

          k =-0.0000 0.5801 0.0000 (  5220 PWs)   bands (ev):

   -18.9192 -17.1366 -10.6897  -6.7642  -2.3178   3.2714   5.9974   6.8634

          k = 0.0718 0.1243 0.0000 (  5273 PWs)   bands (ev):

   -23.5115 -11.5280  -8.4560  -7.9804  -0.5480   0.2405   1.0404   1.3910

          k = 0.0718 0.2072 0.0000 (  5273 PWs)   bands (ev):

   -23.0921 -11.0283  -9.7056  -8.7105   0.0259   0.8210   1.6265   1.9734

          k = 0.0718 0.2901 0.0000 (  5263 PWs)   bands (ev):

   -22.4670 -11.2887 -10.2914  -9.4712   0.8854   1.6857   2.5051   2.8364

          k = 0.0718 0.3729 0.0000 (  5240 PWs)   bands (ev):

   -21.6417 -13.0100 -10.1351  -9.3390   1.5865   2.0272   2.8696   3.6707

          k = 0.0718 0.4558 0.0000 (  5218 PWs)   bands (ev):

   -20.6270 -14.7321 -10.6396  -8.2223  -0.2168   3.4298   3.9653   4.2977

          k = 0.0718 0.5387 0.0000 (  5224 PWs)   bands (ev):

   -19.4520 -16.3551 -10.9535  -7.0951  -1.7987   3.7751   5.1617   6.0002

          k = 0.0718 0.6216 0.0000 (  5224 PWs)   bands (ev):

   -18.4810 -17.4789 -11.0597  -6.5004  -2.5510   3.7259   7.0191   7.1759

          k = 0.1435 0.2486 0.0000 (  5271 PWs)   bands (ev):

   -22.5710 -10.8051 -10.4121  -9.6770   0.7430   1.5446   2.3593   2.7000

          k = 0.1435 0.3315 0.0000 (  5245 PWs)   bands (ev):

   -21.8475 -12.2005 -10.5859  -9.5690   1.7445   2.1405   2.5630   3.3846

          k = 0.1435 0.4144 0.0000 (  5225 PWs)   bands (ev):

   -20.9301 -13.7943 -11.2617  -8.5304   0.4558   3.0255   3.8453   4.6978

          k = 0.1435 0.4973 0.0000 (  5213 PWs)   bands (ev):

   -19.8358 -15.4107 -11.7077  -7.3754  -1.1889   4.5658   5.1269   5.3905

          k = 0.1435 0.5801 0.0000 (  5212 PWs)   bands (ev):

   -18.6415 -16.8839 -11.9301  -6.3871  -2.4403   4.9938   6.3995   7.0871

          k = 0.2153 0.3729 0.0000 (  5218 PWs)   bands (ev):

   -21.0317 -13.2123 -11.7638  -8.6347   0.7326   2.8851   3.6877   4.5560

          k = 0.2153 0.4558 0.0000 (  5210 PWs)   bands (ev):

   -20.0325 -14.4984 -12.5857  -7.5320  -0.7580   4.2986   5.0638   6.2550

          k = 0.2153 0.5387 0.0000 (  5228 PWs)   bands (ev):

   -18.8828 -15.9308 -13.0121  -6.3854  -2.1611   5.9593   6.5019   6.7791

          k = 0.2153 0.6216 0.0000 (  5208 PWs)   bands (ev):

   -17.9418 -16.9819 -13.1443  -5.7309  -2.9056   6.6985   7.1505   7.7239

          k = 0.2871 0.4973 0.0000 (  5224 PWs)   bands (ev):

   -18.9718 -15.2771 -13.7177  -6.3988  -2.0142   5.8252   6.2676   7.5677

          k = 0.2871 0.5801 0.0000 (  5211 PWs)   bands (ev):

   -17.8275 -16.3289 -14.2601  -5.3092  -3.1606   6.6248   7.5260   9.0039

          k = 0.3589 0.6216 0.0000 (  5232 PWs)   bands (ev):

   -16.8686 -16.8686 -14.8871  -4.2160  -4.2160   6.4283   8.7224   8.7224

     the Fermi energy is    -4.2160 ev

!    total energy              =     -22.79915485 Ry
     estimated scf accuracy    <          2.7E-11 Ry
     smearing contrib. (-TS)   =      -0.00005015 Ry
     internal energy E=F+TS    =     -22.79910470 Ry

     The total energy is F=E-TS. E is the sum of the following terms:
     one-electron contribution =    -389.41868715 Ry
     hartree contribution      =     195.33540765 Ry
     xc contribution           =      -7.02473946 Ry
     ewald contribution        =     178.30891426 Ry

     convergence has been achieved in  10 iterations

     Forces acting on atoms (cartesian axes, Ry/au):

     atom    1 type  1   force =     0.00000000    0.00000000    0.00000000
     atom    2 type  1   force =    -0.00000000   -0.00000000    0.00000000

     Total force =     0.000000     Total SCF correction =     0.000000


     Computing stress (Cartesian axis) and pressure

          total   stress  (Ry/bohr**3)                   (kbar)     P=       -5.61
  -0.00001570  -0.00000000   0.00000000           -2.31       -0.00        0.00
  -0.00000000  -0.00001570  -0.00000000           -0.00       -2.31       -0.00
  -0.00000000  -0.00000000  -0.00008302           -0.00       -0.00      -12.21

     Energy error            =      1.2E-02
     Gradient error          =      1.9E-26
     Cell gradient error     =      1.6E-05


     number of scf cycles    =   4
     number of bfgs steps    =   3

     enthalpy old            =     -22.7874524038 Ry
     enthalpy new            =     -22.7991548455 Ry

     CASE: enthalpy_new < enthalpy_old

     new trust radius        =       0.0070885086 bohr
     new conv_thr            =            1.0E-10 Ry

     new unit-cell volume =    754.57101 a.u.^3 (   111.81589 Ang^3 )
     density =      0.35673 g/cm^3

CELL_PARAMETERS (alat=  5.00000000)
   0.927656575   0.000000000   0.000000000
  -0.463828287   0.803374160   0.000000000
   0.000000000   0.000000000   8.100000000

ATOMIC_POSITIONS (crystal)
C             0.3333333333        0.6666666667        0.5000000000
C             0.6666666667        0.3333333333        0.5000000000



     Writing output data file ./work/LiC500.save/
     NEW-OLD atomic charge density approx. for the potential

     negative rho (up, down):  2.497E-07 0.000E+00
     extrapolated charge    7.97938, renormalised to    8.00000

     total cpu time spent up to now is        7.8 secs

     Self-consistent Calculation

     iteration #  1     ecut=    50.00 Ry     beta= 0.70
     Davidson diagonalization with overlap
     c_bands:  2 eigenvalues not converged
     c_bands:  1 eigenvalues not converged
     c_bands:  1 eigenvalues not converged
     ethr =  1.00E-06,  avg # of iterations = 12.1

     total cpu time spent up to now is        8.1 secs

     total energy              =     -22.79892239 Ry
     estimated scf accuracy    <       0.00012653 Ry

     iteration #  2     ecut=    50.00 Ry     beta= 0.70
     Davidson diagonalization with overlap
     c_bands:  1 eigenvalues not converged
     c_bands:  1 eigenvalues not converged
     c_bands:  1 eigenvalues not converged
     ethr =  1.58E-06,  avg # of iterations = 10.9

     total cpu time spent up to now is        8.4 secs

     total energy              =     -22.79917568 Ry
     estimated scf accuracy    <       0.00011832 Ry

     iteration #  3     ecut=    50.00 Ry     beta= 0.70
     Davidson diagonalization with overlap
     ethr =  1.48E-06,  avg # of iterations =  1.4

     total cpu time spent up to now is        8.5 secs

     total energy              =     -22.79916874 Ry
     estimated scf accuracy    <       0.00002730 Ry

     iteration #  4     ecut=    50.00 Ry     beta= 0.70
     Davidson diagonalization with overlap
     ethr =  3.41E-07,  avg # of iterations =  1.3

     total cpu time spent up to now is        8.6 secs

     total energy              =     -22.79917035 Ry
     estimated scf accuracy    <       0.00000504 Ry

     iteration #  5     ecut=    50.00 Ry     beta= 0.70
     Davidson diagonalization with overlap
     ethr =  6.31E-08,  avg # of iterations =  1.0

     total cpu time spent up to now is        8.7 secs

     total energy              =     -22.79916756 Ry
     estimated scf accuracy    <       0.00000501 Ry

     iteration #  6     ecut=    50.00 Ry     beta= 0.70
     Davidson diagonalization with overlap
     ethr =  6.26E-08,  avg # of iterations =  2.0

     total cpu time spent up to now is        8.8 secs

     total energy              =     -22.79916808 Ry
     estimated scf accuracy    <       0.00000014 Ry

     iteration #  7     ecut=    50.00 Ry     beta= 0.70
     Davidson diagonalization with overlap
     ethr =  1.76E-09,  avg # of iterations =  2.0

     total cpu time spent up to now is        9.0 secs

     total energy              =     -22.79916813 Ry
     estimated scf accuracy    <       0.00000001 Ry

     iteration #  8     ecut=    50.00 Ry     beta= 0.70
     Davidson diagonalization with overlap
     ethr =  1.47E-10,  avg # of iterations =  2.2

     total cpu time spent up to now is        9.1 secs

     total energy              =     -22.79916813 Ry
     estimated scf accuracy    <          1.3E-09 Ry

     iteration #  9     ecut=    50.00 Ry     beta= 0.70
     Davidson diagonalization with overlap
     ethr =  1.59E-11,  avg # of iterations =  2.3

     total cpu time spent up to now is        9.2 secs

     End of self-consistent calculation

          k = 0.0000 0.0000 0.0000 (  5287 PWs)   bands (ev):

   -23.8469 -11.9217  -7.2957  -7.2957  -0.9790  -0.1958   0.6009   0.9534

          k =-0.0000 0.0830 0.0000 (  5279 PWs)   bands (ev):

   -23.7413 -11.7949  -7.7198  -7.5205  -0.8352  -0.0499   0.7477   1.0997

          k =-0.0000 0.1660 0.0000 (  5274 PWs)   bands (ev):

   -23.4251 -11.4160  -8.8499  -8.0906  -0.4038   0.3873   1.1884   1.5382

          k =-0.0000 0.2490 0.0000 (  5282 PWs)   bands (ev):

   -22.9007 -10.7929 -10.4023  -8.8038   0.3147   1.1134   1.9225   2.2666

          k =-0.0000 0.3319 0.0000 (  5234 PWs)   bands (ev):

   -22.1720 -12.1401  -9.9392  -9.4960   1.3181   2.0919   2.6960   2.9480

          k =-0.0000 0.4149 0.0000 (  5236 PWs)   bands (ev):

   -21.2465 -13.9130 -10.0737  -8.8902   0.7652   2.5976   3.4573   3.6382

          k =-0.0000 0.4979 0.0000 (  5246 PWs)   bands (ev):

   -20.1399 -15.6211 -10.4807  -7.7322  -1.0078   3.4118   4.2004   5.0373

          k =-0.0000 0.5809 0.0000 (  5220 PWs)   bands (ev):

   -18.9249 -17.1463 -10.6894  -6.7613  -2.3039   3.3212   6.0150   6.8830

          k = 0.0719 0.1245 0.0000 (  5273 PWs)   bands (ev):

   -23.5304 -11.5418  -8.4451  -7.9706  -0.5476   0.2417   1.0415   1.3921

          k = 0.0719 0.2075 0.0000 (  5273 PWs)   bands (ev):

   -23.1101 -11.0405  -9.6967  -8.7034   0.0277   0.8237   1.6291   1.9761

          k = 0.0719 0.2904 0.0000 (  5263 PWs)   bands (ev):

   -22.4836 -11.2829 -10.3012  -9.4667   0.8894   1.6908   2.5100   2.8418

          k = 0.0719 0.3734 0.0000 (  5240 PWs)   bands (ev):

   -21.6563 -13.0078 -10.1327  -9.3456   1.6167   2.0342   2.8784   3.6789

          k = 0.0719 0.4564 0.0000 (  5218 PWs)   bands (ev):

   -20.6391 -14.7339 -10.6388  -8.2251  -0.1937   3.4419   4.0133   4.3100

          k = 0.0719 0.5394 0.0000 (  5224 PWs)   bands (ev):

   -19.4605 -16.3614 -10.9536  -7.0937  -1.7821   3.8251   5.1773   6.0173

          k = 0.0719 0.6224 0.0000 (  5224 PWs)   bands (ev):

   -18.4828 -17.4922 -11.0601  -6.4965  -2.5377   3.7765   7.0399   7.1963

          k = 0.1437 0.2490 0.0000 (  5271 PWs)   bands (ev):

   -22.5878 -10.7974 -10.4224  -9.6736   0.7467   1.5493   2.3638   2.7046

          k = 0.1437 0.3319 0.0000 (  5245 PWs)   bands (ev):

   -21.8626 -12.1955 -10.5852  -9.5765   1.7508   2.1735   2.5711   3.3917

          k = 0.1437 0.4149 0.0000 (  5225 PWs)   bands (ev):

   -20.9429 -13.7931 -11.2625  -8.5344   0.4826   3.0352   3.8563   4.7086

          k = 0.1437 0.4979 0.0000 (  5213 PWs)   bands (ev):

   -19.8458 -15.4137 -11.7094  -7.3752  -1.1688   4.5805   5.1778   5.4059

          k = 0.1437 0.5809 0.0000 (  5212 PWs)   bands (ev):

   -18.6467 -16.8924 -11.9322  -6.3830  -2.4256   5.0462   6.4184   7.1083

          k = 0.2156 0.3734 0.0000 (  5218 PWs)   bands (ev):

   -21.0448 -13.2078 -11.7674  -8.6391   0.7611   2.8943   3.6982   4.5661

          k = 0.2156 0.4564 0.0000 (  5210 PWs)   bands (ev):

   -20.0431 -14.4970 -12.5910  -7.5325  -0.7352   4.3115   5.0783   6.0296

          k = 0.2156 0.5394 0.0000 (  5228 PWs)   bands (ev):

   -18.8900 -15.9342 -13.0177  -6.3817  -2.1437   5.9773   6.5213   6.8335

          k = 0.2156 0.6224 0.0000 (  5208 PWs)   bands (ev):

   -17.9430 -16.9917 -13.1499  -5.7245  -2.8914   6.7537   7.1724   7.7478

          k = 0.2875 0.4979 0.0000 (  5224 PWs)   bands (ev):

   -18.9795 -15.2752 -13.7281  -6.3953  -1.9955   5.8424   6.2860   7.5865

          k = 0.2875 0.5809 0.0000 (  5211 PWs)   bands (ev):

   -17.8310 -16.3310 -14.2717  -5.3017  -3.1461   6.6434   7.5493   8.4917

          k = 0.3593 0.6224 0.0000 (  5232 PWs)   bands (ev):

   -16.8687 -16.8687 -14.9046  -4.2047  -4.2047   6.4454   8.7598   8.7598

     the Fermi energy is    -4.2047 ev

!    total energy              =     -22.79916813 Ry
     estimated scf accuracy    <          7.6E-11 Ry
     smearing contrib. (-TS)   =      -0.00005015 Ry
     internal energy E=F+TS    =     -22.79911798 Ry

     The total energy is F=E-TS. E is the sum of the following terms:
     one-electron contribution =    -390.43611888 Ry
     hartree contribution      =     195.84672843 Ry
     xc contribution           =      -7.03030016 Ry
     ewald contribution        =     178.82057262 Ry

     convergence has been achieved in   9 iterations

     Forces acting on atoms (cartesian axes, Ry/au):

     atom    1 type  1   force =     0.00000000    0.00000000    0.00000000
     atom    2 type  1   force =     0.00000000    0.00000000    0.00000000

     Total force =     0.000000     Total SCF correction =     0.000000


     Computing stress (Cartesian axis) and pressure

          total   stress  (Ry/bohr**3)                   (kbar)     P=       -3.86
   0.00000210  -0.00000000   0.00000000            0.31       -0.00        0.00
   0.00000000   0.00000210  -0.00000000            0.00        0.31       -0.00
  -0.00000000   0.00000000  -0.00008298           -0.00        0.00      -12.21

     Energy error            =      1.3E-05
     Gradient error          =      0.0E+00
     Cell gradient error     =      2.1E-06


     number of scf cycles    =   5
     number of bfgs steps    =   4

     enthalpy old            =     -22.7991548455 Ry
     enthalpy new            =     -22.7991681338 Ry

     CASE: enthalpy_new < enthalpy_old

     new trust radius        =       0.0008358828 bohr
     new conv_thr            =            1.0E-10 Ry

     new unit-cell volume =    754.80064 a.u.^3 (   111.84992 Ang^3 )
     density =      0.35662 g/cm^3

CELL_PARAMETERS (alat=  5.00000000)
   0.927797716   0.000000000   0.000000000
  -0.463898858   0.803496391   0.000000000
   0.000000000   0.000000000   8.100000000

ATOMIC_POSITIONS (crystal)
C             0.3333333333        0.6666666667        0.5000000000
C             0.6666666667        0.3333333333        0.5000000000



     Writing output data file ./work/LiC500.save/
     NEW-OLD atomic charge density approx. for the potential
     extrapolated charge    8.00243, renormalised to    8.00000

     total cpu time spent up to now is        9.3 secs

     Self-consistent Calculation

     iteration #  1     ecut=    50.00 Ry     beta= 0.70
     Davidson diagonalization with overlap
     ethr =  1.00E-06,  avg # of iterations =  3.4

     Threshold (ethr) on eigenvalues was too large:
     Diagonalizing with lowered threshold

     Davidson diagonalization with overlap
     ethr =  2.09E-08,  avg # of iterations =  1.0

     total cpu time spent up to now is        9.6 secs

     total energy              =     -22.79916490 Ry
     estimated scf accuracy    <       0.00000178 Ry

     iteration #  2     ecut=    50.00 Ry     beta= 0.70
     Davidson diagonalization with overlap
     ethr =  2.22E-08,  avg # of iterations =  4.0

     total cpu time spent up to now is        9.7 secs

     total energy              =     -22.79916848 Ry
     estimated scf accuracy    <       0.00000167 Ry

     iteration #  3     ecut=    50.00 Ry     beta= 0.70
     Davidson diagonalization with overlap
     ethr =  2.08E-08,  avg # of iterations =  1.0

     total cpu time spent up to now is        9.8 secs

     total energy              =     -22.79916837 Ry
     estimated scf accuracy    <       0.00000039 Ry

     iteration #  4     ecut=    50.00 Ry     beta= 0.70
     Davidson diagonalization with overlap
     ethr =  4.86E-09,  avg # of iterations =  1.9

     total cpu time spent up to now is       10.0 secs

     total energy              =     -22.79916840 Ry
     estimated scf accuracy    <       0.00000006 Ry

     iteration #  5     ecut=    50.00 Ry     beta= 0.70
     Davidson diagonalization with overlap
     ethr =  6.88E-10,  avg # of iterations =  1.0

     total cpu time spent up to now is       10.1 secs

     total energy              =     -22.79916838 Ry
     estimated scf accuracy    <       0.00000006 Ry

     iteration #  6     ecut=    50.00 Ry     beta= 0.70
     Davidson diagonalization with overlap
     ethr =  6.88E-10,  avg # of iterations =  1.0

     total cpu time spent up to now is       10.2 secs

     total energy              =     -22.79916837 Ry
     estimated scf accuracy    <       0.00000002 Ry

     iteration #  7     ecut=    50.00 Ry     beta= 0.70
     Davidson diagonalization with overlap
     ethr =  3.12E-10,  avg # of iterations =  2.0

     total cpu time spent up to now is       10.3 secs

     total energy              =     -22.79916837 Ry
     estimated scf accuracy    <          2.2E-10 Ry

     iteration #  8     ecut=    50.00 Ry     beta= 0.70
     Davidson diagonalization with overlap
     ethr =  2.75E-12,  avg # of iterations =  2.6

     total cpu time spent up to now is       10.4 secs

     End of self-consistent calculation

          k = 0.0000 0.0000 0.0000 (  5287 PWs)   bands (ev):

   -23.8447 -11.9201  -7.2973  -7.2973  -0.9789  -0.1958   0.6009   0.9534

          k =-0.0000 0.0830 0.0000 (  5279 PWs)   bands (ev):

   -23.7391 -11.7932  -7.7213  -7.5220  -0.8352  -0.0500   0.7477   1.0996

          k =-0.0000 0.1659 0.0000 (  5274 PWs)   bands (ev):

   -23.4230 -11.4146  -8.8513  -8.0919  -0.4039   0.3871   1.1882   1.5380

          k =-0.0000 0.2489 0.0000 (  5282 PWs)   bands (ev):

   -22.8987 -10.7916 -10.4033  -8.8047   0.3144   1.1130   1.9221   2.2662

          k =-0.0000 0.3319 0.0000 (  5234 PWs)   bands (ev):

   -22.1703 -12.1406  -9.9383  -9.4967   1.3175   2.0910   2.6919   2.9473

          k =-0.0000 0.4149 0.0000 (  5236 PWs)   bands (ev):

   -21.2450 -13.9131 -10.0741  -8.8897   0.7619   2.5965   3.4561   3.6326

          k =-0.0000 0.4978 0.0000 (  5246 PWs)   bands (ev):

   -20.1387 -15.6207 -10.4809  -7.7321  -1.0102   3.4060   4.1987   5.0356

          k =-0.0000 0.5808 0.0000 (  5220 PWs)   bands (ev):

   -18.9244 -17.1453 -10.6896  -6.7618  -2.3056   3.3152   6.0129   6.8807

          k = 0.0719 0.1245 0.0000 (  5273 PWs)   bands (ev):

   -23.5283 -11.5402  -8.4465  -7.9719  -0.5476   0.2415   1.0414   1.3920

          k = 0.0719 0.2074 0.0000 (  5273 PWs)   bands (ev):

   -23.1081 -11.0391  -9.6978  -8.7044   0.0275   0.8234   1.6288   1.9758

          k = 0.0719 0.2904 0.0000 (  5263 PWs)   bands (ev):

   -22.4817 -11.2837 -10.3001  -9.4673   0.8889   1.6902   2.5094   2.8412

          k = 0.0719 0.3734 0.0000 (  5240 PWs)   bands (ev):

   -21.6547 -13.0082 -10.1331  -9.3449   1.6131   2.0333   2.8774   3.6780

          k = 0.0719 0.4563 0.0000 (  5218 PWs)   bands (ev):

   -20.6378 -14.7338 -10.6390  -8.2249  -0.1965   3.4405   4.0075   4.3085

          k = 0.0719 0.5393 0.0000 (  5224 PWs)   bands (ev):

   -19.4596 -16.3608 -10.9537  -7.0940  -1.7841   3.8191   5.1755   6.0153

          k = 0.0719 0.6223 0.0000 (  5224 PWs)   bands (ev):

   -18.4827 -17.4908 -11.0602  -6.4971  -2.5394   3.7704   7.0374   7.1939

          k = 0.1437 0.2489 0.0000 (  5271 PWs)   bands (ev):

   -22.5859 -10.7985 -10.4212  -9.6741   0.7463   1.5488   2.3633   2.7041

          k = 0.1437 0.3319 0.0000 (  5245 PWs)   bands (ev):

   -21.8610 -12.1962 -10.5854  -9.5757   1.7500   2.1695   2.5701   3.3909

          k = 0.1437 0.4149 0.0000 (  5225 PWs)   bands (ev):

   -20.9416 -13.7934 -11.2625  -8.5340   0.4793   3.0340   3.8550   4.7073

          k = 0.1437 0.4978 0.0000 (  5213 PWs)   bands (ev):

   -19.8447 -15.4135 -11.7093  -7.3753  -1.1713   4.5788   5.1717   5.4041

          k = 0.1437 0.5808 0.0000 (  5212 PWs)   bands (ev):

   -18.6462 -16.8915 -11.9321  -6.3836  -2.4274   5.0399   6.4161   7.1058

          k = 0.2156 0.3734 0.0000 (  5218 PWs)   bands (ev):

   -21.0434 -13.2085 -11.7671  -8.6387   0.7577   2.8932   3.6970   4.5649

          k = 0.2156 0.4563 0.0000 (  5210 PWs)   bands (ev):

   -20.0420 -14.4973 -12.5905  -7.5326  -0.7380   4.3100   5.0766   6.0280

          k = 0.2156 0.5393 0.0000 (  5228 PWs)   bands (ev):

   -18.8893 -15.9339 -13.0172  -6.3822  -2.1459   5.9752   6.5190   6.8269

          k = 0.2156 0.6223 0.0000 (  5208 PWs)   bands (ev):

   -17.9430 -16.9906 -13.1494  -5.7254  -2.8932   6.7471   7.1698   7.7449

          k = 0.2874 0.4978 0.0000 (  5224 PWs)   bands (ev):

   -18.9787 -15.2756 -13.7270  -6.3958  -1.9978   5.8404   6.2838   7.5842

          k = 0.2874 0.5808 0.0000 (  5211 PWs)   bands (ev):

   -17.8307 -16.3309 -14.2705  -5.3027  -3.1479   6.6412   7.5465   8.4851

          k = 0.3593 0.6223 0.0000 (  5232 PWs)   bands (ev):

   -16.8688 -16.8688 -14.9026  -4.2061  -4.2061   6.4434   8.7553   8.7553

     the Fermi energy is    -4.2061 ev

!    total energy              =     -22.79916837 Ry
     estimated scf accuracy    <          4.0E-11 Ry
     smearing contrib. (-TS)   =      -0.00005015 Ry
     internal energy E=F+TS    =     -22.79911822 Ry

     The total energy is F=E-TS. E is the sum of the following terms:
     one-electron contribution =    -390.31597577 Ry
     hartree contribution      =     195.78637554 Ry
     xc contribution           =      -7.02964899 Ry
     ewald contribution        =     178.76013100 Ry

     convergence has been achieved in   8 iterations

     Forces acting on atoms (cartesian axes, Ry/au):

     atom    1 type  1   force =     0.00000000    0.00000000    0.00000000
     atom    2 type  1   force =     0.00000000    0.00000000    0.00000000

     Total force =     0.000000     Total SCF correction =     0.000000


     Computing stress (Cartesian axis) and pressure

          total   stress  (Ry/bohr**3)                   (kbar)     P=       -4.07
  -0.00000001   0.00000000   0.00000000           -0.00        0.00        0.00
   0.00000000  -0.00000001  -0.00000000            0.00       -0.00       -0.00
   0.00000000  -0.00000000  -0.00008293            0.00       -0.00      -12.20

     Energy error            =      2.4E-07
     Gradient error          =      0.0E+00
     Cell gradient error     =      1.1E-08


     number of scf cycles    =   6
     number of bfgs steps    =   5

     enthalpy old            =     -22.7991681338 Ry
     enthalpy new            =     -22.7991683738 Ry

     CASE: enthalpy_new < enthalpy_old

     small trust_radius: resetting bfgs history

     new trust radius        =       0.0000014738 bohr
     new conv_thr            =            1.0E-10 Ry

     new unit-cell volume =    754.80024 a.u.^3 (   111.84986 Ang^3 )
     density =      0.35663 g/cm^3

CELL_PARAMETERS (alat=  5.00000000)
   0.927797467   0.000000000   0.000000000
  -0.463898733   0.803496176   0.000000000
   0.000000000   0.000000000   8.100000000

ATOMIC_POSITIONS (crystal)
C             0.3333333333        0.6666666667        0.5000000000
C             0.6666666667        0.3333333333        0.5000000000



     Writing output data file ./work/LiC500.save/
     NEW-OLD atomic charge density approx. for the potential
     extrapolated charge    8.00000, renormalised to    8.00000

     total cpu time spent up to now is       10.5 secs

     Self-consistent Calculation

     iteration #  1     ecut=    50.00 Ry     beta= 0.70
     Davidson diagonalization with overlap
     ethr =  1.00E-06,  avg # of iterations =  1.0

     Threshold (ethr) on eigenvalues was too large:
     Diagonalizing with lowered threshold

     Davidson diagonalization with overlap
     ethr =  1.70E-14,  avg # of iterations =  3.4

     total cpu time spent up to now is       10.8 secs

     End of self-consistent calculation

          k = 0.0000 0.0000 0.0000 (  5287 PWs)   bands (ev):

   -23.8449 -11.9203  -7.2975  -7.2975  -0.9791  -0.1959   0.6010   0.9535

          k =-0.0000 0.0830 0.0000 (  5279 PWs)   bands (ev):

   -23.7394 -11.7935  -7.7216  -7.5222  -0.8354  -0.0501   0.7478   1.0997

          k =-0.0000 0.1659 0.0000 (  5274 PWs)   bands (ev):

   -23.4233 -11.4148  -8.8515  -8.0921  -0.4041   0.3870   1.1882   1.5380

          k =-0.0000 0.2489 0.0000 (  5282 PWs)   bands (ev):

   -22.8990 -10.7919 -10.4035  -8.8050   0.3142   1.1129   1.9222   2.2662

          k =-0.0000 0.3319 0.0000 (  5234 PWs)   bands (ev):

   -22.1705 -12.1409  -9.9385  -9.4969   1.3173   2.0909   2.6917   2.9473

          k =-0.0000 0.4149 0.0000 (  5236 PWs)   bands (ev):

   -21.2453 -13.9134 -10.0744  -8.8900   0.7617   2.5963   3.4560   3.6324

          k =-0.0000 0.4978 0.0000 (  5246 PWs)   bands (ev):

   -20.1390 -15.6210 -10.4812  -7.7324  -1.0104   3.4058   4.1985   5.0355

          k =-0.0000 0.5808 0.0000 (  5220 PWs)   bands (ev):

   -18.9246 -17.1455 -10.6899  -6.7620  -2.3059   3.3150   6.0127   6.8805

          k = 0.0719 0.1245 0.0000 (  5273 PWs)   bands (ev):

   -23.5285 -11.5405  -8.4468  -7.9722  -0.5478   0.2414   1.0414   1.3920

          k = 0.0719 0.2074 0.0000 (  5273 PWs)   bands (ev):

   -23.1083 -11.0394  -9.6981  -8.7046   0.0273   0.8233   1.6289   1.9758

          k = 0.0719 0.2904 0.0000 (  5263 PWs)   bands (ev):

   -22.4820 -11.2840 -10.3004  -9.4676   0.8888   1.6901   2.5095   2.8413

          k = 0.0719 0.3734 0.0000 (  5240 PWs)   bands (ev):

   -21.6550 -13.0085 -10.1334  -9.3452   1.6128   2.0331   2.8772   3.6780

          k = 0.0719 0.4563 0.0000 (  5218 PWs)   bands (ev):

   -20.6380 -14.7341 -10.6393  -8.2251  -0.1968   3.4403   4.0072   4.3084

          k = 0.0719 0.5393 0.0000 (  5224 PWs)   bands (ev):

   -19.4599 -16.3610 -10.9539  -7.0942  -1.7844   3.8189   5.1753   6.0151

          k = 0.0719 0.6223 0.0000 (  5224 PWs)   bands (ev):

   -18.4830 -17.4910 -11.0604  -6.4973  -2.5396   3.7702   7.0372   7.1937

          k = 0.1437 0.2489 0.0000 (  5271 PWs)   bands (ev):

   -22.5861 -10.7987 -10.4215  -9.6743   0.7461   1.5487   2.3633   2.7041

          k = 0.1437 0.3319 0.0000 (  5245 PWs)   bands (ev):

   -21.8612 -12.1964 -10.5856  -9.5759   1.7498   2.1693   2.5700   3.3909

          k = 0.1437 0.4149 0.0000 (  5225 PWs)   bands (ev):

   -20.9418 -13.7936 -11.2628  -8.5343   0.4791   3.0338   3.8549   4.7074

          k = 0.1437 0.4978 0.0000 (  5213 PWs)   bands (ev):

   -19.8450 -15.4138 -11.7095  -7.3756  -1.1716   4.5786   5.1715   5.4040

          k = 0.1437 0.5808 0.0000 (  5212 PWs)   bands (ev):

   -18.6465 -16.8918 -11.9324  -6.3839  -2.4277   5.0397   6.4159   7.1057

          k = 0.2156 0.3734 0.0000 (  5218 PWs)   bands (ev):

   -21.0437 -13.2087 -11.7673  -8.6389   0.7574   2.8930   3.6969   4.5650

          k = 0.2156 0.4563 0.0000 (  5210 PWs)   bands (ev):

   -20.0422 -14.4976 -12.5908  -7.5328  -0.7382   4.3098   5.0764   6.0280

          k = 0.2156 0.5393 0.0000 (  5228 PWs)   bands (ev):

   -18.8895 -15.9342 -13.0174  -6.3824  -2.1461   5.9750   6.5188   6.8267

          k = 0.2156 0.6223 0.0000 (  5208 PWs)   bands (ev):

   -17.9433 -16.9909 -13.1496  -5.7256  -2.8935   6.7468   7.1695   7.7447

          k = 0.2874 0.4978 0.0000 (  5224 PWs)   bands (ev):

   -18.9790 -15.2758 -13.7273  -6.3961  -1.9981   5.8402   6.2836   7.5842

          k = 0.2874 0.5808 0.0000 (  5211 PWs)   bands (ev):

   -17.8309 -16.3311 -14.2707  -5.3030  -3.1482   6.6409   7.5463   8.4849

          k = 0.3593 0.6223 0.0000 (  5232 PWs)   bands (ev):

   -16.8690 -16.8690 -14.9029  -4.2064  -4.2064   6.4431   8.7551   8.7551

     the Fermi energy is    -4.2064 ev

!    total energy              =     -22.79916837 Ry
     estimated scf accuracy    <          1.9E-12 Ry
     smearing contrib. (-TS)   =      -0.00005015 Ry
     internal energy E=F+TS    =     -22.79911822 Ry

     The total energy is F=E-TS. E is the sum of the following terms:
     one-electron contribution =    -390.31617948 Ry
     hartree contribution      =     195.78647232 Ry
     xc contribution           =      -7.02964862 Ry
     ewald contribution        =     178.76023755 Ry

     convergence has been achieved in   1 iterations

     Forces acting on atoms (cartesian axes, Ry/au):

     atom    1 type  1   force =     0.00000000    0.00000000    0.00000000
     atom    2 type  1   force =     0.00000000    0.00000000    0.00000000

     Total force =     0.000000     Total SCF correction =     0.000000


     Computing stress (Cartesian axis) and pressure

          total   stress  (Ry/bohr**3)                   (kbar)     P=       -4.07
  -0.00000001  -0.00000000  -0.00000000           -0.00       -0.00       -0.00
   0.00000000  -0.00000001   0.00000000            0.00       -0.00        0.00
   0.00000000  -0.00000000  -0.00008294            0.00       -0.00      -12.20

     Energy error            =      1.2E-11
     Gradient error          =      0.0E+00
     Cell gradient error     =      8.6E-09


     number of scf cycles    =   7
     number of bfgs steps    =   6

     enthalpy old            =     -22.7991683738 Ry
     enthalpy new            =     -22.7991683738 Ry

     CASE: enthalpy_new > enthalpy_old

     new trust radius        =       0.0000001998 bohr

     trust_radius < trust_radius_min

     resetting bfgs history

     Message from routine bfgs:
     history already reset at previous step: stopping
     new conv_thr            =            1.0E-10 Ry

     new unit-cell volume =    754.80024 a.u.^3 (   111.84986 Ang^3 )
     density =      0.35663 g/cm^3

CELL_PARAMETERS (alat=  5.00000000)
   0.927797467   0.000000000   0.000000000
  -0.463898733   0.803496176   0.000000000
   0.000000000   0.000000000   8.100000000

ATOMIC_POSITIONS (crystal)
C             0.3333333333        0.6666666667        0.5000000000
C             0.6666666667        0.3333333333        0.5000000000



     Writing output data file ./work/LiC500.save/
     NEW-OLD atomic charge density approx. for the potential

     total cpu time spent up to now is       10.8 secs

     Self-consistent Calculation

     iteration #  1     ecut=    50.00 Ry     beta= 0.70
     Davidson diagonalization with overlap
     ethr =  1.00E-06,  avg # of iterations =  1.0

     Threshold (ethr) on eigenvalues was too large:
     Diagonalizing with lowered threshold

     Davidson diagonalization with overlap
     ethr =  2.79E-14,  avg # of iterations =  2.0

     total cpu time spent up to now is       11.1 secs

     End of self-consistent calculation

          k = 0.0000 0.0000 0.0000 (  5287 PWs)   bands (ev):

   -23.8446 -11.9200  -7.2972  -7.2972  -0.9789  -0.1958   0.6009   0.9534

          k =-0.0000 0.0830 0.0000 (  5279 PWs)   bands (ev):

   -23.7390 -11.7932  -7.7212  -7.5218  -0.8352  -0.0500   0.7477   1.0996

          k =-0.0000 0.1659 0.0000 (  5274 PWs)   bands (ev):

   -23.4229 -11.4145  -8.8512  -8.0918  -0.4039   0.3871   1.1882   1.5380

          k =-0.0000 0.2489 0.0000 (  5282 PWs)   bands (ev):

   -22.8986 -10.7915 -10.4032  -8.8046   0.3144   1.1130   1.9221   2.2662

          k =-0.0000 0.3319 0.0000 (  5234 PWs)   bands (ev):

   -22.1702 -12.1405  -9.9382  -9.4966   1.3175   2.0910   2.6920   2.9472

          k =-0.0000 0.4149 0.0000 (  5236 PWs)   bands (ev):

   -21.2449 -13.9130 -10.0740  -8.8896   0.7620   2.5965   3.4561   3.6327

          k =-0.0000 0.4978 0.0000 (  5246 PWs)   bands (ev):

   -20.1386 -15.6206 -10.4808  -7.7321  -1.0101   3.4061   4.1988   5.0356

          k =-0.0000 0.5808 0.0000 (  5220 PWs)   bands (ev):

   -18.9243 -17.1452 -10.6895  -6.7617  -2.3055   3.3153   6.0129   6.8807

          k = 0.0719 0.1245 0.0000 (  5273 PWs)   bands (ev):

   -23.5282 -11.5401  -8.4464  -7.9718  -0.5476   0.2415   1.0414   1.3920

          k = 0.0719 0.2074 0.0000 (  5273 PWs)   bands (ev):

   -23.1080 -11.0391  -9.6977  -8.7043   0.0275   0.8234   1.6288   1.9758

          k = 0.0719 0.2904 0.0000 (  5263 PWs)   bands (ev):

   -22.4816 -11.2836 -10.3001  -9.4672   0.8890   1.6902   2.5094   2.8412

          k = 0.0719 0.3734 0.0000 (  5240 PWs)   bands (ev):

   -21.6546 -13.0081 -10.1330  -9.3448   1.6132   2.0333   2.8774   3.6780

          k = 0.0719 0.4563 0.0000 (  5218 PWs)   bands (ev):

   -20.6377 -14.7337 -10.6389  -8.2248  -0.1965   3.4405   4.0076   4.3085

          k = 0.0719 0.5393 0.0000 (  5224 PWs)   bands (ev):

   -19.4595 -16.3607 -10.9536  -7.0939  -1.7841   3.8192   5.1755   6.0153

          k = 0.0719 0.6223 0.0000 (  5224 PWs)   bands (ev):

   -18.4826 -17.4907 -11.0601  -6.4970  -2.5393   3.7705   7.0375   7.1939

          k = 0.1437 0.2489 0.0000 (  5271 PWs)   bands (ev):

   -22.5858 -10.7984 -10.4212  -9.6740   0.7463   1.5488   2.3633   2.7041

          k = 0.1437 0.3319 0.0000 (  5245 PWs)   bands (ev):

   -21.8609 -12.1961 -10.5853  -9.5756   1.7501   2.1696   2.5701   3.3908

          k = 0.1437 0.4149 0.0000 (  5225 PWs)   bands (ev):

   -20.9415 -13.7933 -11.2624  -8.5339   0.4794   3.0340   3.8550   4.7073

          k = 0.1437 0.4978 0.0000 (  5213 PWs)   bands (ev):

   -19.8446 -15.4134 -11.7092  -7.3753  -1.1712   4.5788   5.1718   5.4041

          k = 0.1437 0.5808 0.0000 (  5212 PWs)   bands (ev):

   -18.6461 -16.8914 -11.9320  -6.3835  -2.4273   5.0400   6.4162   7.1058

          k = 0.2156 0.3734 0.0000 (  5218 PWs)   bands (ev):

   -21.0433 -13.2084 -11.7670  -8.6386   0.7578   2.8932   3.6970   4.5649

          k = 0.2156 0.4563 0.0000 (  5210 PWs)   bands (ev):

   -20.0419 -14.4972 -12.5904  -7.5325  -0.7379   4.3100   5.0766   6.0280

          k = 0.2156 0.5393 0.0000 (  5228 PWs)   bands (ev):

   -18.8892 -15.9338 -13.0171  -6.3821  -2.1458   5.9752   6.5190   6.8270

          k = 0.2156 0.6223 0.0000 (  5208 PWs)   bands (ev):

   -17.9429 -16.9905 -13.1493  -5.7253  -2.8931   6.7472   7.1698   7.7450

          k = 0.2874 0.4978 0.0000 (  5224 PWs)   bands (ev):

   -18.9786 -15.2755 -13.7269  -6.3957  -1.9977   5.8404   6.2838   7.5842

          k = 0.2874 0.5808 0.0000 (  5211 PWs)   bands (ev):

   -17.8306 -16.3308 -14.2704  -5.3026  -3.1478   6.6412   7.5465   8.4852

          k = 0.3593 0.6223 0.0000 (  5232 PWs)   bands (ev):

   -16.8687 -16.8687 -14.9025  -4.2061  -4.2061   6.4434   8.7554   8.7554

     the Fermi energy is    -4.2061 ev

!    total energy              =     -22.79916837 Ry
     estimated scf accuracy    <          2.5E-12 Ry
     smearing contrib. (-TS)   =      -0.00005015 Ry
     internal energy E=F+TS    =     -22.79911822 Ry

     The total energy is F=E-TS. E is the sum of the following terms:
     one-electron contribution =    -390.31615993 Ry
     hartree contribution      =     195.78645097 Ry
     xc contribution           =      -7.02964681 Ry
     ewald contribution        =     178.76023755 Ry

     convergence has been achieved in   1 iterations

     Forces acting on atoms (cartesian axes, Ry/au):

     atom    1 type  1   force =    -0.00000000   -0.00000000    0.00000000
     atom    2 type  1   force =     0.00000000    0.00000000    0.00000000

     Total force =     0.000000     Total SCF correction =     0.000000


     Computing stress (Cartesian axis) and pressure

          total   stress  (Ry/bohr**3)                   (kbar)     P=       -4.07
  -0.00000001  -0.00000000   0.00000000           -0.00       -0.00        0.00
  -0.00000000  -0.00000001  -0.00000000           -0.00       -0.00       -0.00
   0.00000000  -0.00000000  -0.00008296            0.00       -0.00      -12.20

     Energy error            =      3.7E-11
     Gradient error          =      1.9E-26
     Cell gradient error     =      5.3E-09


     bfgs converged in   8 scf cycles and   6 bfgs steps
     (criteria: energy <  1.0E-04 Ry, force <  1.0E-08Ry/Bohr, cell <  1.0E-03kbar)

     End of BFGS Geometry Optimization

     Final enthalpy =     -22.7991683738 Ry

     File ./work/LiC500.bfgs deleted, as requested
Begin final coordinates
     new unit-cell volume =    754.80024 a.u.^3 (   111.84986 Ang^3 )
     density =      0.35663 g/cm^3

CELL_PARAMETERS (alat=  5.00000000)
   0.927797467   0.000000000   0.000000000
  -0.463898733   0.803496176   0.000000000
   0.000000000   0.000000000   8.100000000

ATOMIC_POSITIONS (crystal)
C             0.3333333333        0.6666666667        0.5000000000
C             0.6666666667        0.3333333333        0.5000000000
End final coordinates



     Writing output data file ./work/LiC500.save/

     Final scf calculation at the relaxed structure.
     The G-vectors are recalculated for the final unit cell
     Results may differ from those at the preceding step.
 
     Parallelization info
     --------------------
     sticks:   dense  smooth     PW     G-vecs:    dense   smooth      PW
     Min           9       9      2                 1117     1117     170
     Max          10      10      3                 1150     1150     215
     Sum         301     301     91                36111    36111    6409
 


     bravais-lattice index     =            4
     lattice parameter (alat)  =       5.0000  a.u.
     unit-cell volume          =     754.8002 (a.u.)^3
     number of atoms/cell      =            2
     number of atomic types    =            1
     number of electrons       =         8.00
     number of Kohn-Sham states=            8
     kinetic-energy cutoff     =      50.0000  Ry
     charge density cutoff     =     200.0000  Ry
     scf convergence threshold =      1.0E-10
     mixing beta               =       0.7000
     number of iterations used =            8  plain     mixing
     press convergence thresh. =      1.0E-03
     Exchange-correlation= PBE
                           (   1   4   3   4   0   0   0)

     celldm(1)=   5.000000  celldm(2)=   0.000000  celldm(3)=   8.100000
     celldm(4)=   0.000000  celldm(5)=   0.000000  celldm(6)=   0.000000

     crystal axes: (cart. coord. in units of alat)
               a(1) = (   0.927797   0.000000   0.000000 )  
               a(2) = (  -0.463899   0.803496   0.000000 )  
               a(3) = (   0.000000   0.000000   8.100000 )  

     reciprocal axes: (cart. coord. in units 2 pi/alat)
               b(1) = (  1.077821  0.622280  0.000000 )  
               b(2) = ( -0.000000  1.244561  0.000000 )  
               b(3) = (  0.000000  0.000000  0.123457 )  


     PseudoPot. # 1 for C  read from file:
     /home/yhkim/qe-6.7/pseudo/ONCV1/1.2/C_ONCV_PBE-1.2.upf
     MD5 check sum: 1a5f83a7b1f58d24996abe00ed223ac6
     Pseudo is Norm-conserving, Zval =  4.0
     Generated using ONCVPSP code by D. R. Hamann
     Using radial grid of  602 points,  4 beta functions with: 
                l(1) =   0
                l(2) =   0
                l(3) =   1
                l(4) =   1

     atomic species   valence    mass     pseudopotential
        C              4.00    12.01070     C ( 1.00)

     24 Sym. Ops., with inversion, found



   Cartesian axes

     site n.     atom                  positions (alat units)
         1           C   tau(   1) = (  -0.0000000   0.5356641   4.0500000  )
         2           C   tau(   2) = (   0.4638987   0.2678321   4.0500000  )

     number of k points=    27  Methfessel-Paxton smearing, width (Ry)=  0.0100
                       cart. coord. in units 2pi/alat
        k(    1) = (   0.0000000   0.0000000   0.0000000), wk =   0.0088889
        k(    2) = (  -0.0000000   0.0829707   0.0000000), wk =   0.0533333
        k(    3) = (  -0.0000000   0.1659415   0.0000000), wk =   0.0533333
        k(    4) = (  -0.0000000   0.2489122   0.0000000), wk =   0.0533333
        k(    5) = (  -0.0000000   0.3318829   0.0000000), wk =   0.0533333
        k(    6) = (  -0.0000000   0.4148537   0.0000000), wk =   0.0533333
        k(    7) = (  -0.0000000   0.4978244   0.0000000), wk =   0.0533333
        k(    8) = (  -0.0000000   0.5807951   0.0000000), wk =   0.0533333
        k(    9) = (   0.0718548   0.1244561   0.0000000), wk =   0.0533333
        k(   10) = (   0.0718548   0.2074268   0.0000000), wk =   0.1066667
        k(   11) = (   0.0718548   0.2903976   0.0000000), wk =   0.1066667
        k(   12) = (   0.0718548   0.3733683   0.0000000), wk =   0.1066667
        k(   13) = (   0.0718548   0.4563390   0.0000000), wk =   0.1066667
        k(   14) = (   0.0718548   0.5393098   0.0000000), wk =   0.1066667
        k(   15) = (   0.0718548   0.6222805   0.0000000), wk =   0.0533333
        k(   16) = (   0.1437095   0.2489122   0.0000000), wk =   0.0533333
        k(   17) = (   0.1437095   0.3318829   0.0000000), wk =   0.1066667
        k(   18) = (   0.1437095   0.4148537   0.0000000), wk =   0.1066667
        k(   19) = (   0.1437095   0.4978244   0.0000000), wk =   0.1066667
        k(   20) = (   0.1437095   0.5807951   0.0000000), wk =   0.1066667
        k(   21) = (   0.2155643   0.3733683   0.0000000), wk =   0.0533333
        k(   22) = (   0.2155643   0.4563390   0.0000000), wk =   0.1066667
        k(   23) = (   0.2155643   0.5393098   0.0000000), wk =   0.1066667
        k(   24) = (   0.2155643   0.6222805   0.0000000), wk =   0.0533333
        k(   25) = (   0.2874191   0.4978244   0.0000000), wk =   0.0533333
        k(   26) = (   0.2874191   0.5807951   0.0000000), wk =   0.1066667
        k(   27) = (   0.3592738   0.6222805   0.0000000), wk =   0.0177778

     Dense  grid:    36111 G-vectors     FFT dimensions: (  24,  24, 192)

     Estimated max dynamical RAM per process >       1.96 MB

     Estimated total dynamical RAM >      62.63 MB
 ----2D----2D----2D----2D----2D----2D----2D----2D----2D----2D----2D----2D
  The code is running with the 2D cutoff
  Please refer to:
  Sohier, T., Calandra, M., & Mauri, F. (2017), 
  Density functional perturbation theory for gated two-dimensional heterostructu
 res:
  Theoretical developments and application to flexural phonons in graphene.
  Physical Review B, 96(7), 75448. https://doi.org/10.1103/PhysRevB.96.075448
 ----2D----2D----2D----2D----2D----2D----2D----2D----2D----2D----2D----2D

     Initial potential from superposition of free atoms

     starting charge    7.98607, renormalised to    8.00000

     negative rho (up, down):  1.163E-04 0.000E+00
     Starting wfcs are random

     total cpu time spent up to now is       11.2 secs

     Self-consistent Calculation

     iteration #  1     ecut=    50.00 Ry     beta= 0.70
     Davidson diagonalization with overlap
     c_bands:  5 eigenvalues not converged
     c_bands:  1 eigenvalues not converged
     c_bands:  2 eigenvalues not converged
     c_bands:  4 eigenvalues not converged
     c_bands:  4 eigenvalues not converged
     c_bands:  4 eigenvalues not converged
     c_bands:  2 eigenvalues not converged
     c_bands:  2 eigenvalues not converged
     c_bands:  2 eigenvalues not converged
     c_bands:  5 eigenvalues not converged
     c_bands:  5 eigenvalues not converged
     c_bands:  4 eigenvalues not converged
     c_bands:  2 eigenvalues not converged
     c_bands:  3 eigenvalues not converged
     c_bands:  2 eigenvalues not converged
     c_bands:  4 eigenvalues not converged
     c_bands:  4 eigenvalues not converged
     c_bands:  4 eigenvalues not converged
     c_bands:  3 eigenvalues not converged
     c_bands:  2 eigenvalues not converged
     c_bands:  4 eigenvalues not converged
     c_bands:  4 eigenvalues not converged
     c_bands:  3 eigenvalues not converged
     c_bands:  3 eigenvalues not converged
     c_bands:  3 eigenvalues not converged
     c_bands:  3 eigenvalues not converged
     c_bands:  3 eigenvalues not converged
     ethr =  1.00E-06,  avg # of iterations = 22.2

     negative rho (up, down):  2.316E-05 0.000E+00

     total cpu time spent up to now is       11.9 secs

     total energy              =     -22.76057154 Ry
     estimated scf accuracy    <       0.19780670 Ry

     iteration #  2     ecut=    50.00 Ry     beta= 0.70
     Davidson diagonalization with overlap
     ethr =  2.47E-03,  avg # of iterations =  2.1

     negative rho (up, down):  2.952E-06 0.000E+00

     total cpu time spent up to now is       12.1 secs

     total energy              =     -22.79033749 Ry
     estimated scf accuracy    <       0.00233659 Ry

     iteration #  3     ecut=    50.00 Ry     beta= 0.70
     Davidson diagonalization with overlap
     ethr =  2.92E-05,  avg # of iterations =  9.5

     total cpu time spent up to now is       12.3 secs

     total energy              =     -22.79073849 Ry
     estimated scf accuracy    <       0.00017285 Ry

     iteration #  4     ecut=    50.00 Ry     beta= 0.70
     Davidson diagonalization with overlap
     ethr =  2.16E-06,  avg # of iterations =  5.5

     total cpu time spent up to now is       12.4 secs

     total energy              =     -22.79075266 Ry
     estimated scf accuracy    <       0.00000121 Ry

     iteration #  5     ecut=    50.00 Ry     beta= 0.70
     Davidson diagonalization with overlap
     ethr =  1.51E-08,  avg # of iterations =  3.9

     total cpu time spent up to now is       12.5 secs

     total energy              =     -22.79075416 Ry
     estimated scf accuracy    <       0.00000004 Ry

     iteration #  6     ecut=    50.00 Ry     beta= 0.70
     Davidson diagonalization with overlap
     ethr =  5.15E-10,  avg # of iterations =  2.3

     total cpu time spent up to now is       12.7 secs

     total energy              =     -22.79075417 Ry
     estimated scf accuracy    <          9.3E-10 Ry

     iteration #  7     ecut=    50.00 Ry     beta= 0.70
     Davidson diagonalization with overlap
     ethr =  1.16E-11,  avg # of iterations =  3.1

     total cpu time spent up to now is       12.8 secs

     End of self-consistent calculation

          k = 0.0000 0.0000 0.0000 (  4483 PWs)   bands (ev):

   -23.8586 -11.9245  -7.2853  -7.2853  -0.9826  -0.2035   0.5841   0.9392

          k =-0.0000 0.0830 0.0000 (  4471 PWs)   bands (ev):

   -23.7527 -11.7966  -7.7089  -7.5083  -0.8388  -0.0576   0.7309   1.0854

          k =-0.0000 0.1659 0.0000 (  4501 PWs)   bands (ev):

   -23.4365 -11.4179  -8.8408  -8.0782  -0.4074   0.3796   1.1714   1.5238

          k =-0.0000 0.2489 0.0000 (  4483 PWs)   bands (ev):

   -22.9118 -10.7946 -10.3915  -8.7896   0.3111   1.1057   1.9054   2.2519

          k =-0.0000 0.3319 0.0000 (  4515 PWs)   bands (ev):

   -22.1830 -12.1368  -9.9416  -9.4856   1.3145   2.0852   2.6966   2.9307

          k =-0.0000 0.4149 0.0000 (  4533 PWs)   bands (ev):

   -21.2575 -13.9148 -10.0646  -8.8917   0.7667   2.5940   3.4494   3.6274

          k =-0.0000 0.4978 0.0000 (  4541 PWs)   bands (ev):

   -20.1506 -15.6259 -10.4723  -7.7335  -1.0069   3.3985   4.1954   5.0295

          k =-0.0000 0.5808 0.0000 (  4535 PWs)   bands (ev):

   -18.9356 -17.1524 -10.6818  -6.7630  -2.3050   3.3056   6.0110   6.8756

          k = 0.0719 0.1245 0.0000 (  4503 PWs)   bands (ev):

   -23.5418 -11.5435  -8.4353  -7.9603  -0.5511   0.2340   1.0246   1.3778

          k = 0.0719 0.2074 0.0000 (  4502 PWs)   bands (ev):

   -23.1215 -11.0422  -9.6860  -8.6930   0.0242   0.8160   1.6120   1.9615

          k = 0.0719 0.2904 0.0000 (  4495 PWs)   bands (ev):

   -22.4946 -11.2766 -10.3026  -9.4553   0.8858   1.6832   2.4927   2.8272

          k = 0.0719 0.3734 0.0000 (  4506 PWs)   bands (ev):

   -21.6673 -13.0068 -10.1218  -9.3471   1.6199   2.0305   2.8706   3.6623

          k = 0.0719 0.4563 0.0000 (  4518 PWs)   bands (ev):

   -20.6498 -14.7373 -10.6303  -8.2267  -0.1928   3.4386   4.0024   4.3021

          k = 0.0719 0.5393 0.0000 (  4529 PWs)   bands (ev):

   -19.4711 -16.3670 -10.9453  -7.0958  -1.7820   3.8128   5.1729   6.0097

          k = 0.0719 0.6223 0.0000 (  4530 PWs)   bands (ev):

   -18.4946 -17.4974 -11.0519  -6.4983  -2.5380   3.7632   7.0365   7.1929

          k = 0.1437 0.2489 0.0000 (  4497 PWs)   bands (ev):

   -22.5989 -10.7906 -10.4239  -9.6645   0.7431   1.5416   2.3466   2.6898

          k = 0.1437 0.3319 0.0000 (  4495 PWs)   bands (ev):

   -21.8737 -12.1925 -10.5765  -9.5780   1.7471   2.1777   2.5635   3.3745

          k = 0.1437 0.4149 0.0000 (  4513 PWs)   bands (ev):

   -20.9538 -13.7943 -11.2557  -8.5360   0.4824   3.0314   3.8487   4.6910

          k = 0.1437 0.4978 0.0000 (  4521 PWs)   bands (ev):

   -19.8564 -15.4181 -11.7035  -7.3780  -1.1697   4.5773   5.1718   5.3986

          k = 0.1437 0.5808 0.0000 (  4509 PWs)   bands (ev):

   -18.6572 -16.8981 -11.9266  -6.3852  -2.4257   5.0396   6.4146   7.1029

          k = 0.2156 0.3734 0.0000 (  4495 PWs)   bands (ev):

   -21.0558 -13.2077 -11.7605  -8.6411   0.7624   2.8905   3.6907   4.5483

          k = 0.2156 0.4563 0.0000 (  4501 PWs)   bands (ev):

   -20.0537 -14.5002 -12.5853  -7.5343  -0.7346   4.3078   5.0714   6.0117

          k = 0.2156 0.5393 0.0000 (  4501 PWs)   bands (ev):

   -18.9000 -15.9392 -13.0126  -6.3836  -2.1436   5.9745   6.5163   6.8372

          k = 0.2156 0.6223 0.0000 (  4506 PWs)   bands (ev):

   -17.9539 -16.9966 -13.1464  -5.7253  -2.8924   6.7563   7.1680   7.7470

          k = 0.2874 0.4978 0.0000 (  4487 PWs)   bands (ev):

   -18.9895 -15.2802 -13.7233  -6.3957  -1.9962   5.8392   6.2812   7.5709

          k = 0.2874 0.5808 0.0000 (  4494 PWs)   bands (ev):

   -17.8403 -16.3375 -14.2683  -5.3023  -3.1470   6.6382   7.5486   8.5041

          k = 0.3593 0.6223 0.0000 (  4485 PWs)   bands (ev):

   -16.8769 -16.8769 -14.9005  -4.2038  -4.2038   6.4396   8.7700   8.7700

     the Fermi energy is    -4.2038 ev

!    total energy              =     -22.79075417 Ry
     estimated scf accuracy    <          1.3E-11 Ry
     smearing contrib. (-TS)   =      -0.00005015 Ry
     internal energy E=F+TS    =     -22.79070402 Ry

     The total energy is F=E-TS. E is the sum of the following terms:
     one-electron contribution =    -390.29862911 Ry
     hartree contribution      =     195.77684822 Ry
     xc contribution           =      -7.02916066 Ry
     ewald contribution        =     178.76023752 Ry

     convergence has been achieved in   7 iterations

     Forces acting on atoms (cartesian axes, Ry/au):

     atom    1 type  1   force =     0.00000000    0.00000000    0.00000000
     atom    2 type  1   force =    -0.00000000   -0.00000000    0.00000000

     Total force =     0.000000     Total SCF correction =     0.000000


     Computing stress (Cartesian axis) and pressure

          total   stress  (Ry/bohr**3)                   (kbar)     P=      -10.02
  -0.00004771  -0.00000000   0.00000000           -7.02       -0.00        0.00
  -0.00000000  -0.00004771  -0.00000000           -0.00       -7.02       -0.00
   0.00000000  -0.00000000  -0.00010888            0.00       -0.00      -16.02


     Writing output data file ./work/LiC500.save/
 
     init_run     :      0.12s CPU      0.15s WALL (       2 calls)
     electrons    :     11.00s CPU     12.14s WALL (       9 calls)
     update_pot   :      0.10s CPU      0.10s WALL (       7 calls)
     forces       :      0.08s CPU      0.09s WALL (       9 calls)
     stress       :      0.22s CPU      0.23s WALL (       9 calls)

     Called by init_run:
     wfcinit      :      0.09s CPU      0.10s WALL (       2 calls)
     potinit      :      0.01s CPU      0.02s WALL (       2 calls)
     hinit0       :      0.01s CPU      0.01s WALL (       2 calls)

     Called by electrons:
     c_bands      :      9.62s CPU     10.34s WALL (      66 calls)
     sum_band     :      1.22s CPU      1.30s WALL (      66 calls)
     v_of_rho     :      0.13s CPU      0.14s WALL (      72 calls)
     mix_rho      :      0.02s CPU      0.02s WALL (      66 calls)

     Called by c_bands:
     init_us_2    :      0.09s CPU      0.10s WALL (    4104 calls)
     cegterg      :      9.38s CPU     10.06s WALL (    1785 calls)

     Called by *egterg:
     cdiaghg      :      0.88s CPU      0.95s WALL (    9777 calls)
     h_psi        :      7.87s CPU      8.45s WALL (   10104 calls)
     g_psi        :      0.03s CPU      0.03s WALL (    8265 calls)

     Called by h_psi:
     h_psi:calbec :      0.32s CPU      0.34s WALL (   10104 calls)
     vloc_psi     :      7.38s CPU      7.92s WALL (   10104 calls)
     add_vuspsi   :      0.08s CPU      0.09s WALL (   10104 calls)

     General routines
     calbec       :      0.35s CPU      0.38s WALL (   11319 calls)
     fft          :      0.12s CPU      0.13s WALL (     793 calls)
     ffts         :      0.01s CPU      0.01s WALL (      66 calls)
     fftw         :      8.01s CPU      8.59s WALL (  116184 calls)
 
     Parallel routines
     fft_scatt_xy :      0.54s CPU      0.58s WALL (  117043 calls)
     fft_scatt_yz :      4.65s CPU      4.98s WALL (  117043 calls)
 
     PWSCF        :     11.61s CPU     13.07s WALL

 
   This run was terminated on:  14:21:46  19Jan2024            

=------------------------------------------------------------------------------=
   JOB DONE.
=------------------------------------------------------------------------------=
