
     Program PWSCF v.6.7MaX starts on 19Jan2024 at 13:38:13 

     This program is part of the open-source Quantum ESPRESSO suite
     for quantum simulation of materials; please cite
         "P. Giannozzi et al., J. Phys.:Condens. Matter 21 395502 (2009);
         "P. Giannozzi et al., J. Phys.:Condens. Matter 29 465901 (2017);
          URL http://www.quantum-espresso.org", 
     in publications or presentations arising from this work. More details at
     http://www.quantum-espresso.org/quote

     Parallel version (MPI), running on    32 processors

     MPI processes distributed on     1 nodes
     R & G space division:  proc/nbgrp/npool/nimage =      32
     Waiting for input...
     Reading input from standard input

     Current dimensions of program PWSCF are:
     Max number of different atomic species (ntypx) = 10
     Max number of k-points (npk) =  40000
     Max angular momentum in pseudopotentials (lmaxx) =  3
     Message from routine read_pp_mesh:
     mesh size missing, using the one in header

     Subspace diagonalization in iterative solution of the eigenvalue problem:
     a serial algorithm will be used

 
     Parallelization info
     --------------------
     sticks:   dense  smooth     PW     G-vecs:    dense   smooth      PW
     Min           8       8      2                 1014     1014     164
     Max           9       9      3                 1041     1041     207
     Sum         265     265     85                32715    32715    6019
 


     bravais-lattice index     =            4
     lattice parameter (alat)  =       4.4300  a.u.
     unit-cell volume          =     688.3243 (a.u.)^3
     number of atoms/cell      =            2
     number of atomic types    =            1
     number of electrons       =         8.00
     number of Kohn-Sham states=            8
     kinetic-energy cutoff     =      50.0000  Ry
     charge density cutoff     =     200.0000  Ry
     scf convergence threshold =      1.0E-08
     mixing beta               =       0.7000
     number of iterations used =            8  plain     mixing
     energy convergence thresh.=      1.0E-04
     force convergence thresh. =      1.0E-08
     press convergence thresh. =      1.0E-03
     Exchange-correlation= PBE
                           (   1   4   3   4   0   0   0)
     nstep                     =           50


     celldm(1)=   4.430000  celldm(2)=   0.000000  celldm(3)=   9.142212
     celldm(4)=   0.000000  celldm(5)=   0.000000  celldm(6)=   0.000000

     crystal axes: (cart. coord. in units of alat)
               a(1) = (   1.000000   0.000000   0.000000 )  
               a(2) = (  -0.500000   0.866025   0.000000 )  
               a(3) = (   0.000000   0.000000   9.142212 )  

     reciprocal axes: (cart. coord. in units 2 pi/alat)
               b(1) = (  1.000000  0.577350  0.000000 )  
               b(2) = (  0.000000  1.154701  0.000000 )  
               b(3) = (  0.000000  0.000000  0.109383 )  


     PseudoPot. # 1 for C  read from file:
     /home/yhkim/qe-6.7/pseudo/ONCV1/1.2/C_ONCV_PBE-1.2.upf
     MD5 check sum: 1a5f83a7b1f58d24996abe00ed223ac6
     Pseudo is Norm-conserving, Zval =  4.0
     Generated using ONCVPSP code by D. R. Hamann
     Using radial grid of  602 points,  4 beta functions with: 
                l(1) =   0
                l(2) =   0
                l(3) =   1
                l(4) =   1

     atomic species   valence    mass     pseudopotential
        C              4.00    12.01070     C ( 1.00)

     24 Sym. Ops., with inversion, found



   Cartesian axes

     site n.     atom                  positions (alat units)
         1           C   tau(   1) = (  -0.0000000   0.5773503   4.5711061  )
         2           C   tau(   2) = (   0.5000000   0.2886751   4.5711061  )

     number of k points=    27  Methfessel-Paxton smearing, width (Ry)=  0.0100
                       cart. coord. in units 2pi/alat
        k(    1) = (   0.0000000   0.0000000   0.0000000), wk =   0.0088889
        k(    2) = (   0.0000000   0.0769800   0.0000000), wk =   0.0533333
        k(    3) = (   0.0000000   0.1539601   0.0000000), wk =   0.0533333
        k(    4) = (   0.0000000   0.2309401   0.0000000), wk =   0.0533333
        k(    5) = (   0.0000000   0.3079201   0.0000000), wk =   0.0533333
        k(    6) = (   0.0000000   0.3849002   0.0000000), wk =   0.0533333
        k(    7) = (   0.0000000   0.4618802   0.0000000), wk =   0.0533333
        k(    8) = (   0.0000000   0.5388603   0.0000000), wk =   0.0533333
        k(    9) = (   0.0666667   0.1154701   0.0000000), wk =   0.0533333
        k(   10) = (   0.0666667   0.1924501   0.0000000), wk =   0.1066667
        k(   11) = (   0.0666667   0.2694301   0.0000000), wk =   0.1066667
        k(   12) = (   0.0666667   0.3464102   0.0000000), wk =   0.1066667
        k(   13) = (   0.0666667   0.4233902   0.0000000), wk =   0.1066667
        k(   14) = (   0.0666667   0.5003702   0.0000000), wk =   0.1066667
        k(   15) = (   0.0666667   0.5773503   0.0000000), wk =   0.0533333
        k(   16) = (   0.1333333   0.2309401   0.0000000), wk =   0.0533333
        k(   17) = (   0.1333333   0.3079201   0.0000000), wk =   0.1066667
        k(   18) = (   0.1333333   0.3849002   0.0000000), wk =   0.1066667
        k(   19) = (   0.1333333   0.4618802   0.0000000), wk =   0.1066667
        k(   20) = (   0.1333333   0.5388603   0.0000000), wk =   0.1066667
        k(   21) = (   0.2000000   0.3464102   0.0000000), wk =   0.0533333
        k(   22) = (   0.2000000   0.4233902   0.0000000), wk =   0.1066667
        k(   23) = (   0.2000000   0.5003702   0.0000000), wk =   0.1066667
        k(   24) = (   0.2000000   0.5773503   0.0000000), wk =   0.0533333
        k(   25) = (   0.2666667   0.4618802   0.0000000), wk =   0.0533333
        k(   26) = (   0.2666667   0.5388603   0.0000000), wk =   0.1066667
        k(   27) = (   0.3333333   0.5773503   0.0000000), wk =   0.0177778

     Dense  grid:    32715 G-vectors     FFT dimensions: (  20,  20, 192)

     Estimated max dynamical RAM per process >       1.78 MB

     Estimated total dynamical RAM >      57.00 MB
 ----2D----2D----2D----2D----2D----2D----2D----2D----2D----2D----2D----2D
  The code is running with the 2D cutoff
  Please refer to:
  Sohier, T., Calandra, M., & Mauri, F. (2017), 
  Density functional perturbation theory for gated two-dimensional heterostructu
 res:
  Theoretical developments and application to flexural phonons in graphene.
  Physical Review B, 96(7), 75448. https://doi.org/10.1103/PhysRevB.96.075448
 ----2D----2D----2D----2D----2D----2D----2D----2D----2D----2D----2D----2D

     Initial potential from superposition of free atoms

     starting charge    7.98607, renormalised to    8.00000

     negative rho (up, down):  1.074E-04 0.000E+00
     Starting wfcs are random

     total cpu time spent up to now is        0.1 secs

     Self-consistent Calculation

     iteration #  1     ecut=    50.00 Ry     beta= 0.70
     Davidson diagonalization with overlap
     ethr =  1.00E-02,  avg # of iterations = 11.5

     negative rho (up, down):  5.726E-08 0.000E+00

     total cpu time spent up to now is        0.6 secs

     total energy              =     -22.72100881 Ry
     estimated scf accuracy    <       0.25374096 Ry

     iteration #  2     ecut=    50.00 Ry     beta= 0.70
     Davidson diagonalization with overlap
     ethr =  3.17E-03,  avg # of iterations =  2.0

     total cpu time spent up to now is        0.7 secs

     total energy              =     -22.75910658 Ry
     estimated scf accuracy    <       0.00232473 Ry

     iteration #  3     ecut=    50.00 Ry     beta= 0.70
     Davidson diagonalization with overlap
     c_bands:  2 eigenvalues not converged
     c_bands:  1 eigenvalues not converged
     ethr =  2.91E-05,  avg # of iterations = 11.5

     total cpu time spent up to now is        1.0 secs

     total energy              =     -22.76051573 Ry
     estimated scf accuracy    <       0.00015472 Ry

     iteration #  4     ecut=    50.00 Ry     beta= 0.70
     Davidson diagonalization with overlap
     ethr =  1.93E-06,  avg # of iterations =  6.2

     total cpu time spent up to now is        1.2 secs

     total energy              =     -22.76055468 Ry
     estimated scf accuracy    <       0.00000167 Ry

     iteration #  5     ecut=    50.00 Ry     beta= 0.70
     Davidson diagonalization with overlap
     ethr =  2.09E-08,  avg # of iterations =  3.9

     total cpu time spent up to now is        1.3 secs

     total energy              =     -22.76055766 Ry
     estimated scf accuracy    <       0.00000015 Ry

     iteration #  6     ecut=    50.00 Ry     beta= 0.70
     Davidson diagonalization with overlap
     ethr =  1.88E-09,  avg # of iterations =  2.1

     total cpu time spent up to now is        1.5 secs

     End of self-consistent calculation

          k = 0.0000 0.0000 0.0000 (  4027 PWs)   bands (ev):

   -24.5937 -12.4978  -6.7850  -1.0094  -0.2072   0.5728   0.9284   2.2543

          k = 0.0000 0.0770 0.0000 (  4043 PWs)   bands (ev):

   -24.4794 -12.3568  -7.2428  -7.0454  -0.8521  -0.0469   0.7338   1.0891

          k = 0.0000 0.1540 0.0000 (  4061 PWs)   bands (ev):

   -24.1371 -11.9331  -8.4569  -7.7050  -0.3798   0.4336   1.2168   1.5708

          k = 0.0000 0.2309 0.0000 (  4067 PWs)   bands (ev):

   -23.5689 -11.2344 -10.1266  -8.5217   0.4074   1.2326   2.0221   2.3719

          k = 0.0000 0.3079 0.0000 (  4063 PWs)   bands (ev):

   -22.7785 -12.0013 -10.2778  -9.3089   1.5077   2.3354   3.1487   3.4586

          k = 0.0000 0.3849 0.0000 (  4086 PWs)   bands (ev):

   -21.7737 -13.9202  -9.9607  -9.0966   1.7412   2.9160   3.8220   4.5908

          k = 0.0000 0.4619 0.0000 (  4100 PWs)   bands (ev):

   -20.5633 -15.7802 -10.4187  -7.7841  -0.3000   4.6015   5.2817   5.5568

          k = 0.0000 0.5389 0.0000 (  4112 PWs)   bands (ev):

   -19.1792 -17.5001 -10.6546  -6.6675  -1.8047   5.1411   6.6756   7.5998

          k = 0.0667 0.1155 0.0000 (  4053 PWs)   bands (ev):

   -24.2510 -12.0728  -8.0165  -7.5705  -0.5372   0.2736   1.0559   1.4104

          k = 0.0667 0.1925 0.0000 (  4078 PWs)   bands (ev):

   -23.7959 -11.5126  -9.3558  -8.4106   0.0931   0.9136   1.7002   2.0519

          k = 0.0667 0.2694 0.0000 (  4076 PWs)   bands (ev):

   -23.1166 -11.0665 -10.6836  -9.2709   1.0377   1.8691   2.6665   3.0099

          k = 0.0667 0.3464 0.0000 (  4094 PWs)   bands (ev):

   -22.2194 -12.9334 -10.0187  -9.6101   2.2935   2.6976   3.2294   3.9536

          k = 0.0667 0.4234 0.0000 (  4116 PWs)   bands (ev):

   -21.1120 -14.8082 -10.5855  -8.3458   0.6538   3.8534   4.7564   5.5394

          k = 0.0667 0.5004 0.0000 (  4120 PWs)   bands (ev):

   -19.8099 -16.5964 -10.9357  -7.0557  -1.1822   5.5534   5.8638   6.6431

          k = 0.0667 0.5774 0.0000 (  4113 PWs)   bands (ev):

   -18.5560 -18.0154 -11.0543  -6.3625  -2.0652   5.6322   7.8136   7.9600

          k = 0.1333 0.2309 0.0000 (  4099 PWs)   bands (ev):

   -23.2297 -10.8205 -10.5094  -9.5223   0.8814   1.7116   2.5060   2.8527

          k = 0.1333 0.3079 0.0000 (  4098 PWs)   bands (ev):

   -22.4430 -12.0134 -10.5352  -9.8708   1.9827   2.8162   3.4498   3.6342

          k = 0.1333 0.3849 0.0000 (  4125 PWs)   bands (ev):

   -21.4441 -13.7605 -11.2689  -8.6977   1.4714   3.3924   4.2570   5.0817

          k = 0.1333 0.4619 0.0000 (  4125 PWs)   bands (ev):

   -20.2436 -15.5366 -11.7511  -7.3847  -0.4338   5.1013   5.9720   6.8314

          k = 0.1333 0.5389 0.0000 (  4123 PWs)   bands (ev):

   -18.8773 -17.2099 -11.9929  -6.2436  -1.8930   6.9193   7.1741   7.8908

          k = 0.2000 0.3464 0.0000 (  4107 PWs)   bands (ev):

   -21.5550 -13.0464 -11.8864  -8.8162   1.8228   3.2378   4.0803   4.9220

          k = 0.2000 0.4234 0.0000 (  4139 PWs)   bands (ev):

   -20.4630 -14.4639 -12.7679  -7.5673   0.1094   4.7949   5.6111   6.5300

          k = 0.2000 0.5004 0.0000 (  4149 PWs)   bands (ev):

   -19.1872 -16.0798 -13.1991  -6.2574  -1.5078   6.6368   7.2405   8.4493

          k = 0.2000 0.5774 0.0000 (  4151 PWs)   bands (ev):

   -17.9957 -17.4021 -13.3322  -5.4979  -2.3755   7.9906   8.6288   8.7062

          k = 0.2667 0.4619 0.0000 (  4167 PWs)   bands (ev):

   -19.2941 -15.2146 -14.1049  -6.2790  -1.3107   6.4832   6.9711   8.2664

          k = 0.2667 0.5389 0.0000 (  4167 PWs)   bands (ev):

   -17.9888 -16.4405 -14.6705  -5.0318  -2.6138   7.3357   8.4017   9.8786

          k = 0.3333 0.5774 0.0000 (  4179 PWs)   bands (ev):

   -16.8783 -16.8783 -15.5668  -3.7929  -3.7929   7.0783  10.0325  10.0326

     the Fermi energy is    -3.7506 ev

!    total energy              =     -22.76055769 Ry
     estimated scf accuracy    <          7.9E-09 Ry
     smearing contrib. (-TS)   =      -0.00003668 Ry
     internal energy E=F+TS    =     -22.76052102 Ry

     The total energy is F=E-TS. E is the sum of the following terms:
     one-electron contribution =    -428.47390968 Ry
     hartree contribution      =     214.96108420 Ry
     xc contribution           =      -7.23332027 Ry
     ewald contribution        =     197.98562473 Ry

     convergence has been achieved in   6 iterations

     Forces acting on atoms (cartesian axes, Ry/au):

     atom    1 type  1   force =     0.00000000    0.00000000    0.00000000
     atom    2 type  1   force =    -0.00000000   -0.00000000    0.00000000

     Total force =     0.000000     Total SCF correction =     0.000000


     Computing stress (Cartesian axis) and pressure

          total   stress  (Ry/bohr**3)                   (kbar)     P=       60.97
   0.00068291   0.00000000   0.00000000          100.46        0.00        0.00
   0.00000000   0.00068291   0.00000000            0.00      100.46        0.00
  -0.00000000   0.00000000  -0.00012248           -0.00        0.00      -18.02


     BFGS Geometry Optimization
     Energy error            =      0.0E+00
     Gradient error          =      1.7E-26
     Cell gradient error     =      6.8E-04


     number of scf cycles    =   1
     number of bfgs steps    =   0

     enthalpy new            =     -22.7605576936 Ry

     new trust radius        =       0.0895838273 bohr
     new conv_thr            =       0.0000000100 Ry

     new unit-cell volume =    712.02810 a.u.^3 (   105.51168 Ang^3 )
     density =      0.37805 g/cm^3

CELL_PARAMETERS (alat=  4.43000000)
   1.017072734   0.000000000   0.000000000
  -0.508536367   0.880810825   0.000000000
   0.000000000   0.000000000   9.142212190

ATOMIC_POSITIONS (crystal)
C             0.3333333333        0.6666666667        0.5000000000
C             0.6666666667        0.3333333333        0.5000000000



     Writing output data file ./work/LiC443.save/
     NEW-OLD atomic charge density approx. for the potential

     negative rho (up, down):  3.105E-05 0.000E+00
     extrapolated charge    8.26586, renormalised to    8.00000

     total cpu time spent up to now is        1.5 secs

     Self-consistent Calculation

     iteration #  1     ecut=    50.00 Ry     beta= 0.70
     Davidson diagonalization with overlap
     c_bands:  1 eigenvalues not converged
     c_bands:  1 eigenvalues not converged
     c_bands:  3 eigenvalues not converged
     c_bands:  2 eigenvalues not converged
     c_bands:  1 eigenvalues not converged
     c_bands:  2 eigenvalues not converged
     c_bands:  3 eigenvalues not converged
     c_bands:  2 eigenvalues not converged
     c_bands:  1 eigenvalues not converged
     c_bands:  1 eigenvalues not converged
     c_bands:  3 eigenvalues not converged
     c_bands:  4 eigenvalues not converged
     c_bands:  1 eigenvalues not converged
     c_bands:  4 eigenvalues not converged
     c_bands:  3 eigenvalues not converged
     c_bands:  4 eigenvalues not converged
     c_bands:  2 eigenvalues not converged
     ethr =  1.00E-06,  avg # of iterations = 19.7

     total cpu time spent up to now is        2.2 secs

     total energy              =     571.74448042 Ry
     estimated scf accuracy    <     337.31668259 Ry

     iteration #  2     ecut=    50.00 Ry     beta= 0.70
     Davidson diagonalization with overlap
     c_bands:  5 eigenvalues not converged
     c_bands:  1 eigenvalues not converged
     c_bands:  5 eigenvalues not converged
     c_bands:  2 eigenvalues not converged
     c_bands:  4 eigenvalues not converged
     c_bands:  1 eigenvalues not converged
     c_bands:  3 eigenvalues not converged
     c_bands:  5 eigenvalues not converged
     c_bands:  2 eigenvalues not converged
     c_bands:  3 eigenvalues not converged
     c_bands:  4 eigenvalues not converged
     c_bands:  2 eigenvalues not converged
     c_bands:  1 eigenvalues not converged
     c_bands:  3 eigenvalues not converged
     c_bands:  5 eigenvalues not converged
     c_bands:  4 eigenvalues not converged
     c_bands:  1 eigenvalues not converged
     ethr =  1.00E-02,  avg # of iterations = 35.1

     total cpu time spent up to now is        3.5 secs

     total energy              =    -132.20324983 Ry
     estimated scf accuracy    <     172.34556265 Ry

     iteration #  3     ecut=    50.00 Ry     beta= 0.70
     Davidson diagonalization with overlap
     ethr =  1.00E-02,  avg # of iterations =  6.2

     total cpu time spent up to now is        3.7 secs

     total energy              =     -53.89391740 Ry
     estimated scf accuracy    <      59.46074277 Ry

     iteration #  4     ecut=    50.00 Ry     beta= 0.70
     Davidson diagonalization with overlap
     ethr =  1.00E-02,  avg # of iterations =  3.4

     total cpu time spent up to now is        3.8 secs

     total energy              =     -45.19087963 Ry
     estimated scf accuracy    <      16.98540037 Ry

     iteration #  5     ecut=    50.00 Ry     beta= 0.70
     Davidson diagonalization with overlap
     ethr =  1.00E-02,  avg # of iterations =  1.0

     total cpu time spent up to now is        3.9 secs

     total energy              =     -24.85760929 Ry
     estimated scf accuracy    <      12.18613398 Ry

     iteration #  6     ecut=    50.00 Ry     beta= 0.70
     Davidson diagonalization with overlap
     ethr =  1.00E-02,  avg # of iterations =  4.0

     total cpu time spent up to now is        4.1 secs

     total energy              =     -34.48959921 Ry
     estimated scf accuracy    <       1.26450082 Ry

     iteration #  7     ecut=    50.00 Ry     beta= 0.70
     Davidson diagonalization with overlap
     ethr =  1.00E-02,  avg # of iterations =  1.6

     total cpu time spent up to now is        4.2 secs

     total energy              =     -34.56320009 Ry
     estimated scf accuracy    <       6.28894165 Ry

     iteration #  8     ecut=    50.00 Ry     beta= 0.70
     Davidson diagonalization with overlap
     ethr =  1.00E-02,  avg # of iterations =  1.0

     total cpu time spent up to now is        4.3 secs

     total energy              =     -31.88109532 Ry
     estimated scf accuracy    <       6.31999040 Ry

     iteration #  9     ecut=    50.00 Ry     beta= 0.70
     Davidson diagonalization with overlap
     ethr =  1.00E-02,  avg # of iterations =  1.0

     total cpu time spent up to now is        4.4 secs

     total energy              =     -27.88495419 Ry
     estimated scf accuracy    <       4.89898346 Ry

     iteration # 10     ecut=    50.00 Ry     beta= 0.70
     Davidson diagonalization with overlap
     ethr =  1.00E-02,  avg # of iterations =  1.0

     negative rho (up, down):  1.532E-03 0.000E+00

     total cpu time spent up to now is        4.5 secs

     total energy              =     -22.64442138 Ry
     estimated scf accuracy    <       2.76826137 Ry

     iteration # 11     ecut=    50.00 Ry     beta= 0.70
     Davidson diagonalization with overlap
     ethr =  1.00E-02,  avg # of iterations =  5.7

     negative rho (up, down):  1.286E-03 0.000E+00

     total cpu time spent up to now is        4.7 secs

     total energy              =     -22.83015034 Ry
     estimated scf accuracy    <       0.11461382 Ry

     iteration # 12     ecut=    50.00 Ry     beta= 0.70
     Davidson diagonalization with overlap
     ethr =  1.43E-03,  avg # of iterations =  7.6

     negative rho (up, down):  2.258E-03 0.000E+00

     total cpu time spent up to now is        4.9 secs

     total energy              =     -22.83253013 Ry
     estimated scf accuracy    <       0.14391175 Ry

     iteration # 13     ecut=    50.00 Ry     beta= 0.70
     Davidson diagonalization with overlap
     ethr =  1.43E-03,  avg # of iterations =  1.0

     negative rho (up, down):  2.706E-03 0.000E+00

     total cpu time spent up to now is        5.0 secs

     total energy              =     -22.83441440 Ry
     estimated scf accuracy    <       0.14338139 Ry

     iteration # 14     ecut=    50.00 Ry     beta= 0.70
     Davidson diagonalization with overlap
     ethr =  1.43E-03,  avg # of iterations =  1.0

     negative rho (up, down):  1.304E-02 0.000E+00

     total cpu time spent up to now is        5.1 secs

     total energy              =     -22.84722971 Ry
     estimated scf accuracy    <       0.14739101 Ry

     iteration # 15     ecut=    50.00 Ry     beta= 0.70
     Davidson diagonalization with overlap
     ethr =  1.43E-03,  avg # of iterations =  1.7

     negative rho (up, down):  9.360E-03 0.000E+00

     total cpu time spent up to now is        5.2 secs

     total energy              =     -22.84189576 Ry
     estimated scf accuracy    <       0.27946753 Ry

     iteration # 16     ecut=    50.00 Ry     beta= 0.70
     Davidson diagonalization with overlap
     ethr =  1.43E-03,  avg # of iterations =  1.0

     negative rho (up, down):  1.655E-02 0.000E+00

     total cpu time spent up to now is        5.4 secs

     total energy              =     -22.84295555 Ry
     estimated scf accuracy    <       0.18198292 Ry

     iteration # 17     ecut=    50.00 Ry     beta= 0.70
     Davidson diagonalization with overlap
     ethr =  1.43E-03,  avg # of iterations =  1.0

     negative rho (up, down):  2.156E-02 0.000E+00

     total cpu time spent up to now is        5.5 secs

     total energy              =     -22.76507840 Ry
     estimated scf accuracy    <       0.18729455 Ry

     iteration # 18     ecut=    50.00 Ry     beta= 0.70
     Davidson diagonalization with overlap
     ethr =  1.43E-03,  avg # of iterations =  3.5

     negative rho (up, down):  2.062E-02 0.000E+00

     total cpu time spent up to now is        5.6 secs

     total energy              =     -22.77263239 Ry
     estimated scf accuracy    <       0.03029511 Ry

     iteration # 19     ecut=    50.00 Ry     beta= 0.70
     Davidson diagonalization with overlap
     ethr =  3.79E-04,  avg # of iterations =  3.1

     negative rho (up, down):  1.979E-02 0.000E+00

     total cpu time spent up to now is        5.8 secs

     total energy              =     -22.77560348 Ry
     estimated scf accuracy    <       0.00193341 Ry

     iteration # 20     ecut=    50.00 Ry     beta= 0.70
     Davidson diagonalization with overlap
     ethr =  2.42E-05,  avg # of iterations =  9.5

     negative rho (up, down):  2.132E-02 0.000E+00

     total cpu time spent up to now is        6.0 secs

     total energy              =     -22.77543203 Ry
     estimated scf accuracy    <       0.00104214 Ry

     iteration # 21     ecut=    50.00 Ry     beta= 0.70
     Davidson diagonalization with overlap
     ethr =  1.30E-05,  avg # of iterations =  5.4

     negative rho (up, down):  1.686E-02 0.000E+00

     total cpu time spent up to now is        6.2 secs

     total energy              =     -22.77538903 Ry
     estimated scf accuracy    <       0.00061342 Ry

     iteration # 22     ecut=    50.00 Ry     beta= 0.70
     Davidson diagonalization with overlap
     ethr =  7.67E-06,  avg # of iterations =  5.7

     negative rho (up, down):  9.918E-03 0.000E+00

     total cpu time spent up to now is        6.3 secs

     total energy              =     -22.77535134 Ry
     estimated scf accuracy    <       0.00053963 Ry

     iteration # 23     ecut=    50.00 Ry     beta= 0.70
     Davidson diagonalization with overlap
     ethr =  6.75E-06,  avg # of iterations =  7.8

     negative rho (up, down):  8.784E-03 0.000E+00

     total cpu time spent up to now is        6.5 secs

     total energy              =     -22.77539091 Ry
     estimated scf accuracy    <       0.00031502 Ry

     iteration # 24     ecut=    50.00 Ry     beta= 0.70
     Davidson diagonalization with overlap
     ethr =  3.94E-06,  avg # of iterations =  8.7

     negative rho (up, down):  8.108E-03 0.000E+00

     total cpu time spent up to now is        6.8 secs

     total energy              =     -22.77520204 Ry
     estimated scf accuracy    <       0.00026514 Ry

     iteration # 25     ecut=    50.00 Ry     beta= 0.70
     Davidson diagonalization with overlap
     c_bands:  1 eigenvalues not converged
     ethr =  3.31E-06,  avg # of iterations =  9.6

     negative rho (up, down):  1.861E-03 0.000E+00

     total cpu time spent up to now is        7.0 secs

     total energy              =     -22.77486034 Ry
     estimated scf accuracy    <       0.00022462 Ry

     iteration # 26     ecut=    50.00 Ry     beta= 0.70
     Davidson diagonalization with overlap
     c_bands:  1 eigenvalues not converged
     ethr =  2.81E-06,  avg # of iterations =  9.5

     negative rho (up, down):  3.331E-05 0.000E+00

     total cpu time spent up to now is        7.3 secs

     total energy              =     -22.77482581 Ry
     estimated scf accuracy    <       0.00001963 Ry

     iteration # 27     ecut=    50.00 Ry     beta= 0.70
     Davidson diagonalization with overlap
     c_bands:  1 eigenvalues not converged
     c_bands:  1 eigenvalues not converged
     c_bands:  1 eigenvalues not converged
     ethr =  2.45E-07,  avg # of iterations =  9.4

     negative rho (up, down):  9.693E-06 0.000E+00

     total cpu time spent up to now is        7.5 secs

     total energy              =     -22.77482839 Ry
     estimated scf accuracy    <       0.00000007 Ry

     iteration # 28     ecut=    50.00 Ry     beta= 0.70
     Davidson diagonalization with overlap
     ethr =  8.17E-10,  avg # of iterations =  4.8

     total cpu time spent up to now is        7.7 secs

     End of self-consistent calculation

          k = 0.0000 0.0000 0.0000 (  4027 PWs)   bands (ev):

   -24.3134 -12.2741  -6.9444  -6.9444  -1.0020  -0.2123   0.5574   0.9118

          k =-0.0000 0.0757 0.0000 (  4043 PWs)   bands (ev):

   -24.2023 -12.1386  -7.3944  -7.1918  -0.8497  -0.0574   0.7130   1.0670

          k =-0.0000 0.1514 0.0000 (  4061 PWs)   bands (ev):

   -23.8693 -11.7316  -8.5830  -7.8200  -0.3928   0.4068   1.1800   1.5324

          k =-0.0000 0.2271 0.0000 (  4067 PWs)   bands (ev):

   -23.3166 -11.0607 -10.2133  -8.5996   0.3686   1.1785   1.9584   2.3061

          k =-0.0000 0.3028 0.0000 (  4063 PWs)   bands (ev):

   -22.5480 -12.0402 -10.1430  -9.3523   1.4327   2.2396   3.0474   3.3088

          k =-0.0000 0.3784 0.0000 (  4086 PWs)   bands (ev):

   -21.5721 -13.9079  -9.9765  -9.0112   1.3861   2.7934   3.6750   4.4316

          k =-0.0000 0.4541 0.0000 (  4100 PWs)   bands (ev):

   -20.3986 -15.7146 -10.4153  -7.7569  -0.5558   4.3551   4.6748   5.3523

          k =-0.0000 0.5298 0.0000 (  4112 PWs)   bands (ev):

   -19.0750 -17.3656 -10.6417  -6.6957  -1.9821   4.4590   6.4217   7.3222

          k = 0.0655 0.1135 0.0000 (  4053 PWs)   bands (ev):

   -23.9801 -11.8657  -8.1545  -7.6920  -0.5450   0.2522   1.0244   1.3774

          k = 0.0655 0.1892 0.0000 (  4078 PWs)   bands (ev):

   -23.5374 -11.3278  -9.4652  -8.4948   0.0646   0.8704   1.6473   1.9972

          k = 0.0655 0.2649 0.0000 (  4076 PWs)   bands (ev):

   -22.8768 -11.1327 -10.5321  -9.3201   0.9781   1.7930   2.5814   2.9219

          k = 0.0655 0.3406 0.0000 (  4094 PWs)   bands (ev):

   -22.0048 -12.9498 -10.0389  -9.5029   2.1922   2.3164   3.0758   3.8255

          k = 0.0655 0.4163 0.0000 (  4116 PWs)   bands (ev):

   -20.9300 -14.7723 -10.5841  -8.2928   0.3459   3.6982   4.5794   5.1187

          k = 0.0655 0.4920 0.0000 (  4120 PWs)   bands (ev):

   -19.6719 -16.5038 -10.9208  -7.0626  -1.3973   4.9593   5.5506   6.3992

          k = 0.0655 0.5677 0.0000 (  4113 PWs)   bands (ev):

   -18.5305 -17.8058 -11.0347  -6.4059  -2.2325   4.9384   7.5195   7.6690

          k = 0.1311 0.2271 0.0000 (  4099 PWs)   bands (ev):

   -22.9867 -10.6636 -10.6023  -9.5572   0.8268   1.6413   2.4262   2.7706

          k = 0.1311 0.3028 0.0000 (  4098 PWs)   bands (ev):

   -22.2220 -12.0681 -10.5350  -9.7526   1.8916   2.6991   2.9983   3.5162

          k = 0.1311 0.3784 0.0000 (  4125 PWs)   bands (ev):

   -21.2518 -13.7619 -11.2500  -8.6288   1.1098   3.2542   4.0971   4.9157

          k = 0.1311 0.4541 0.0000 (  4125 PWs)   bands (ev):

   -20.0886 -15.4826 -11.7193  -7.3738  -0.7001   4.9043   5.7508   6.3556

          k = 0.1311 0.5298 0.0000 (  4123 PWs)   bands (ev):

   -18.7823 -17.0866 -11.9543  -6.2885  -2.0834   6.2516   6.8607   7.5914

          k = 0.1966 0.3406 0.0000 (  4107 PWs)   bands (ev):

   -21.3593 -13.0963 -11.8256  -8.7420   1.4341   3.1047   3.9279   4.7617

          k = 0.1966 0.4163 0.0000 (  4139 PWs)   bands (ev):

   -20.3002 -14.4661 -12.6901  -7.5468  -0.1989   4.6093   5.4028   6.3155

          k = 0.1966 0.4920 0.0000 (  4149 PWs)   bands (ev):

   -19.0687 -16.0167 -13.1221  -6.2965  -1.7374   6.3869   6.9653   8.0720

          k = 0.1966 0.5677 0.0000 (  4151 PWs)   bands (ev):

   -17.9769 -17.2324 -13.2550  -5.5755  -2.5596   7.6809   8.0260   8.2985

          k = 0.2622 0.4541 0.0000 (  4167 PWs)   bands (ev):

   -19.1696 -15.2320 -13.9523  -6.3152  -1.5606   6.2392   6.7091   8.0155

          k = 0.2622 0.5298 0.0000 (  4167 PWs)   bands (ev):

   -17.9225 -16.3893 -14.5170  -5.1253  -2.8054   7.0739   8.0834   9.5444

          k = 0.3277 0.5677 0.0000 (  4179 PWs)   bands (ev):

   -16.8735 -16.8735 -15.3013  -3.9392  -3.9392   6.8392   9.5839   9.5839

     the Fermi energy is    -3.9392 ev

!    total energy              =     -22.77482841 Ry
     estimated scf accuracy    <          3.4E-09 Ry
     smearing contrib. (-TS)   =      -0.00005015 Ry
     internal energy E=F+TS    =     -22.77477826 Ry

     The total energy is F=E-TS. E is the sum of the following terms:
     one-electron contribution =    -414.03235460 Ry
     hartree contribution      =     207.70676106 Ry
     xc contribution           =      -7.15758309 Ry
     ewald contribution        =     190.70839838 Ry

     convergence has been achieved in  28 iterations

     Forces acting on atoms (cartesian axes, Ry/au):

     atom    1 type  1   force =     0.00000000    0.00000000    0.00000000
     atom    2 type  1   force =    -0.00000000   -0.00000000    0.00000000

     Total force =     0.000000     Total SCF correction =     0.000000


     Computing stress (Cartesian axis) and pressure

          total   stress  (Ry/bohr**3)                   (kbar)     P=       29.53
   0.00036311   0.00000000   0.00000000           53.42        0.00        0.00
   0.00000000   0.00036311   0.00000000            0.00       53.42        0.00
   0.00000000  -0.00000000  -0.00012401            0.00       -0.00      -18.24

     Energy error            =      1.4E-02
     Gradient error          =      1.7E-26
     Cell gradient error     =      3.6E-04


     number of scf cycles    =   2
     number of bfgs steps    =   1

     enthalpy old            =     -22.7605576936 Ry
     enthalpy new            =     -22.7748284128 Ry

     CASE: enthalpy_new < enthalpy_old

     new trust radius        =       0.0985422100 bohr
     new conv_thr            =            1.0E-10 Ry

     new unit-cell volume =    738.56572 a.u.^3 (   109.44415 Ang^3 )
     density =      0.36446 g/cm^3

CELL_PARAMETERS (alat=  4.43000000)
   1.035852741  -0.000000000   0.000000000
  -0.517926370   0.897074788   0.000000000
   0.000000000   0.000000000   9.142212190

ATOMIC_POSITIONS (crystal)
C             0.3333333333        0.6666666667        0.5000000000
C             0.6666666667        0.3333333333        0.5000000000



     Writing output data file ./work/LiC443.save/
     NEW-OLD atomic charge density approx. for the potential

     negative rho (up, down):  5.063E-05 0.000E+00
     extrapolated charge    8.28695, renormalised to    8.00000

     total cpu time spent up to now is        7.8 secs

     Self-consistent Calculation

     iteration #  1     ecut=    50.00 Ry     beta= 0.70
     Davidson diagonalization with overlap
     c_bands:  1 eigenvalues not converged
     c_bands:  1 eigenvalues not converged
     c_bands:  2 eigenvalues not converged
     c_bands:  5 eigenvalues not converged
     c_bands:  1 eigenvalues not converged
     c_bands:  1 eigenvalues not converged
     c_bands:  2 eigenvalues not converged
     c_bands:  5 eigenvalues not converged
     c_bands:  2 eigenvalues not converged
     c_bands:  2 eigenvalues not converged
     c_bands:  3 eigenvalues not converged
     c_bands:  3 eigenvalues not converged
     c_bands:  5 eigenvalues not converged
     c_bands:  1 eigenvalues not converged
     c_bands:  4 eigenvalues not converged
     c_bands:  4 eigenvalues not converged
     c_bands:  5 eigenvalues not converged
     c_bands:  3 eigenvalues not converged
     c_bands:  5 eigenvalues not converged
     ethr =  1.00E-06,  avg # of iterations = 18.9

     total cpu time spent up to now is        8.4 secs

     total energy              =     556.16688083 Ry
     estimated scf accuracy    <     327.54126081 Ry

     iteration #  2     ecut=    50.00 Ry     beta= 0.70
     Davidson diagonalization with overlap
     c_bands:  4 eigenvalues not converged
     c_bands:  4 eigenvalues not converged
     c_bands:  5 eigenvalues not converged
     c_bands:  2 eigenvalues not converged
     c_bands:  2 eigenvalues not converged
     c_bands:  4 eigenvalues not converged
     c_bands:  5 eigenvalues not converged
     c_bands:  5 eigenvalues not converged
     c_bands:  5 eigenvalues not converged
     c_bands:  2 eigenvalues not converged
     c_bands:  1 eigenvalues not converged
     c_bands:  3 eigenvalues not converged
     c_bands:  5 eigenvalues not converged
     c_bands:  5 eigenvalues not converged
     c_bands:  5 eigenvalues not converged
     c_bands:  5 eigenvalues not converged
     c_bands:  4 eigenvalues not converged
     c_bands:  5 eigenvalues not converged
     c_bands:  4 eigenvalues not converged
     ethr =  1.00E-02,  avg # of iterations = 30.0

     total cpu time spent up to now is        9.6 secs

     total energy              =    -128.72433884 Ry
     estimated scf accuracy    <     167.09222494 Ry

     iteration #  3     ecut=    50.00 Ry     beta= 0.70
     Davidson diagonalization with overlap
     c_bands:  2 eigenvalues not converged
     c_bands:  2 eigenvalues not converged
     c_bands:  1 eigenvalues not converged
     ethr =  1.00E-02,  avg # of iterations =  8.5

     total cpu time spent up to now is        9.8 secs

     total energy              =     -51.28782903 Ry
     estimated scf accuracy    <      57.67097564 Ry

     iteration #  4     ecut=    50.00 Ry     beta= 0.70
     Davidson diagonalization with overlap
     ethr =  1.00E-02,  avg # of iterations =  3.9

     total cpu time spent up to now is       10.0 secs

     total energy              =     -44.57086680 Ry
     estimated scf accuracy    <      15.62624885 Ry

     iteration #  5     ecut=    50.00 Ry     beta= 0.70
     Davidson diagonalization with overlap
     ethr =  1.00E-02,  avg # of iterations =  1.0

     total cpu time spent up to now is       10.1 secs

     total energy              =     -24.10787037 Ry
     estimated scf accuracy    <      11.87582889 Ry

     iteration #  6     ecut=    50.00 Ry     beta= 0.70
     Davidson diagonalization with overlap
     ethr =  1.00E-02,  avg # of iterations =  4.1

     total cpu time spent up to now is       10.2 secs

     total energy              =     -32.91075682 Ry
     estimated scf accuracy    <       0.90436797 Ry

     iteration #  7     ecut=    50.00 Ry     beta= 0.70
     Davidson diagonalization with overlap
     ethr =  1.00E-02,  avg # of iterations =  2.6

     total cpu time spent up to now is       10.4 secs

     total energy              =     -36.56718354 Ry
     estimated scf accuracy    <       5.47616050 Ry

     iteration #  8     ecut=    50.00 Ry     beta= 0.70
     Davidson diagonalization with overlap
     ethr =  1.00E-02,  avg # of iterations =  1.1

     total cpu time spent up to now is       10.5 secs

     total energy              =     -34.96190876 Ry
     estimated scf accuracy    <       7.42164643 Ry

     iteration #  9     ecut=    50.00 Ry     beta= 0.70
     Davidson diagonalization with overlap
     ethr =  1.00E-02,  avg # of iterations =  1.0

     total cpu time spent up to now is       10.6 secs

     total energy              =     -22.66926917 Ry
     estimated scf accuracy    <       6.65010614 Ry

     iteration # 10     ecut=    50.00 Ry     beta= 0.70
     Davidson diagonalization with overlap
     ethr =  1.00E-02,  avg # of iterations =  3.0

     negative rho (up, down):  8.986E-05 0.000E+00

     total cpu time spent up to now is       10.7 secs

     total energy              =     -22.77422319 Ry
     estimated scf accuracy    <       0.04868908 Ry

     iteration # 11     ecut=    50.00 Ry     beta= 0.70
     Davidson diagonalization with overlap
     ethr =  6.09E-04,  avg # of iterations =  9.8

     negative rho (up, down):  2.092E-04 0.000E+00

     total cpu time spent up to now is       11.0 secs

     total energy              =     -22.78053824 Ry
     estimated scf accuracy    <       0.00616572 Ry

     iteration # 12     ecut=    50.00 Ry     beta= 0.70
     Davidson diagonalization with overlap
     ethr =  7.71E-05,  avg # of iterations =  3.6

     negative rho (up, down):  3.943E-04 0.000E+00

     total cpu time spent up to now is       11.1 secs

     total energy              =     -22.78527629 Ry
     estimated scf accuracy    <       0.00615727 Ry

     iteration # 13     ecut=    50.00 Ry     beta= 0.70
     Davidson diagonalization with overlap
     ethr =  7.70E-05,  avg # of iterations =  2.8

     negative rho (up, down):  4.094E-04 0.000E+00

     total cpu time spent up to now is       11.3 secs

     total energy              =     -22.78515922 Ry
     estimated scf accuracy    <       0.01813956 Ry

     iteration # 14     ecut=    50.00 Ry     beta= 0.70
     Davidson diagonalization with overlap
     ethr =  7.70E-05,  avg # of iterations =  1.0

     negative rho (up, down):  9.115E-03 0.000E+00

     total cpu time spent up to now is       11.4 secs

     total energy              =     -22.80085728 Ry
     estimated scf accuracy    <       0.01558534 Ry

     iteration # 15     ecut=    50.00 Ry     beta= 0.70
     Davidson diagonalization with overlap
     ethr =  7.70E-05,  avg # of iterations =  7.4

     negative rho (up, down):  4.791E-03 0.000E+00

     total cpu time spent up to now is       11.6 secs

     total energy              =     -22.79808645 Ry
     estimated scf accuracy    <       0.12266720 Ry

     iteration # 16     ecut=    50.00 Ry     beta= 0.70
     Davidson diagonalization with overlap
     ethr =  7.70E-05,  avg # of iterations =  2.3

     negative rho (up, down):  3.940E-03 0.000E+00

     total cpu time spent up to now is       11.7 secs

     total energy              =     -22.79585133 Ry
     estimated scf accuracy    <       0.04807926 Ry

     iteration # 17     ecut=    50.00 Ry     beta= 0.70
     Davidson diagonalization with overlap
     ethr =  7.70E-05,  avg # of iterations =  1.2

     negative rho (up, down):  2.367E-03 0.000E+00

     total cpu time spent up to now is       11.8 secs

     total energy              =     -22.78694990 Ry
     estimated scf accuracy    <       0.03530465 Ry

     iteration # 18     ecut=    50.00 Ry     beta= 0.70
     Davidson diagonalization with overlap
     ethr =  7.70E-05,  avg # of iterations =  2.1

     negative rho (up, down):  8.308E-03 0.000E+00

     total cpu time spent up to now is       12.0 secs

     total energy              =     -22.77909626 Ry
     estimated scf accuracy    <       0.01626534 Ry

     iteration # 19     ecut=    50.00 Ry     beta= 0.70
     Davidson diagonalization with overlap
     ethr =  7.70E-05,  avg # of iterations =  4.8

     negative rho (up, down):  1.693E-02 0.000E+00

     total cpu time spent up to now is       12.1 secs

     total energy              =     -22.78229054 Ry
     estimated scf accuracy    <       0.00371221 Ry

     iteration # 20     ecut=    50.00 Ry     beta= 0.70
     Davidson diagonalization with overlap
     ethr =  4.64E-05,  avg # of iterations =  5.2

     negative rho (up, down):  2.292E-02 0.000E+00

     total cpu time spent up to now is       12.3 secs

     total energy              =     -22.78307387 Ry
     estimated scf accuracy    <       0.00285412 Ry

     iteration # 21     ecut=    50.00 Ry     beta= 0.70
     Davidson diagonalization with overlap
     ethr =  3.57E-05,  avg # of iterations =  1.9

     negative rho (up, down):  2.349E-02 0.000E+00

     total cpu time spent up to now is       12.4 secs

     total energy              =     -22.78295760 Ry
     estimated scf accuracy    <       0.00307503 Ry

     iteration # 22     ecut=    50.00 Ry     beta= 0.70
     Davidson diagonalization with overlap
     ethr =  3.57E-05,  avg # of iterations =  1.0

     negative rho (up, down):  2.368E-02 0.000E+00

     total cpu time spent up to now is       12.5 secs

     total energy              =     -22.78282030 Ry
     estimated scf accuracy    <       0.00275257 Ry

     iteration # 23     ecut=    50.00 Ry     beta= 0.70
     Davidson diagonalization with overlap
     ethr =  3.44E-05,  avg # of iterations =  1.0

     negative rho (up, down):  2.765E-02 0.000E+00

     total cpu time spent up to now is       12.7 secs

     total energy              =     -22.78339452 Ry
     estimated scf accuracy    <       0.00250565 Ry

     iteration # 24     ecut=    50.00 Ry     beta= 0.70
     Davidson diagonalization with overlap
     ethr =  3.13E-05,  avg # of iterations =  2.2

     negative rho (up, down):  6.140E-04 0.000E+00

     total cpu time spent up to now is       12.8 secs

     total energy              =     -22.78129453 Ry
     estimated scf accuracy    <       0.00300993 Ry

     iteration # 25     ecut=    50.00 Ry     beta= 0.70
     Davidson diagonalization with overlap
     c_bands:  1 eigenvalues not converged
     ethr =  3.13E-05,  avg # of iterations = 10.5

     negative rho (up, down):  1.287E-04 0.000E+00

     total cpu time spent up to now is       13.1 secs

     total energy              =     -22.77958791 Ry
     estimated scf accuracy    <       0.00592194 Ry

     iteration # 26     ecut=    50.00 Ry     beta= 0.70
     Davidson diagonalization with overlap
     ethr =  3.13E-05,  avg # of iterations =  2.6

     negative rho (up, down):  5.863E-06 0.000E+00

     total cpu time spent up to now is       13.2 secs

     total energy              =     -22.78030168 Ry
     estimated scf accuracy    <       0.00006627 Ry

     iteration # 27     ecut=    50.00 Ry     beta= 0.70
     Davidson diagonalization with overlap
     ethr =  8.28E-07,  avg # of iterations =  5.0

     total cpu time spent up to now is       13.4 secs

     total energy              =     -22.78032066 Ry
     estimated scf accuracy    <       0.00000105 Ry

     iteration # 28     ecut=    50.00 Ry     beta= 0.70
     Davidson diagonalization with overlap
     ethr =  1.31E-08,  avg # of iterations =  2.9

     total cpu time spent up to now is       13.5 secs

     total energy              =     -22.78032109 Ry
     estimated scf accuracy    <          8.3E-09 Ry

     iteration # 29     ecut=    50.00 Ry     beta= 0.70
     Davidson diagonalization with overlap
     ethr =  1.04E-10,  avg # of iterations =  3.5

     total cpu time spent up to now is       13.7 secs

     total energy              =     -22.78032110 Ry
     estimated scf accuracy    <          1.0E-10 Ry

     iteration # 30     ecut=    50.00 Ry     beta= 0.70
     Davidson diagonalization with overlap
     ethr =  1.30E-12,  avg # of iterations =  3.1

     total cpu time spent up to now is       13.8 secs

     End of self-consistent calculation

          k = 0.0000 0.0000 0.0000 (  4027 PWs)   bands (ev):

   -24.0373 -12.0556  -7.1305  -7.1305  -0.9909  -0.2082   0.5736   0.9304

          k = 0.0000 0.0743 0.0000 (  4043 PWs)   bands (ev):

   -23.9295 -11.9260  -7.5730  -7.3644  -0.8440  -0.0590   0.7237   1.0799

          k = 0.0000 0.1486 0.0000 (  4061 PWs)   bands (ev):

   -23.6066 -11.5365  -8.7362  -7.9603  -0.4031   0.3881   1.1739   1.5281

          k = 0.0000 0.2229 0.0000 (  4067 PWs)   bands (ev):

   -23.0707 -10.8948 -10.3256  -8.7014   0.3313   1.1310   1.9241   2.2729

          k = 0.0000 0.2973 0.0000 (  4063 PWs)   bands (ev):

   -22.3257 -12.1021 -10.0178  -9.4184   1.3572   2.1439   2.9699   2.9731

          k = 0.0000 0.3716 0.0000 (  4086 PWs)   bands (ev):

   -21.3812 -13.9150 -10.0138  -8.9378   0.9948   2.6672   3.5305   4.0221

          k = 0.0000 0.4459 0.0000 (  4100 PWs)   bands (ev):

   -20.2487 -15.6638 -10.4326  -7.7445  -0.8419   3.7963   4.3187   5.1466

          k = 0.0000 0.5202 0.0000 (  4112 PWs)   bands (ev):

   -18.9938 -17.2372 -10.6491  -6.7409  -2.1863   3.7218   6.1606   7.0386

          k = 0.0644 0.1115 0.0000 (  4053 PWs)   bands (ev):

   -23.7141 -11.6647  -8.3198  -7.8390  -0.5500   0.2392   1.0238   1.3788

          k = 0.0644 0.1858 0.0000 (  4078 PWs)   bands (ev):

   -23.2848 -11.1502  -9.6014  -8.6030   0.0380   0.8345   1.6242   1.9757

          k = 0.0644 0.2601 0.0000 (  4076 PWs)   bands (ev):

   -22.6443 -11.2239 -10.3895  -9.3917   0.9188   1.7221   2.5245   2.8639

          k = 0.0644 0.3344 0.0000 (  4094 PWs)   bands (ev):

   -21.7998 -12.9882 -10.0803  -9.4066   1.8801   2.0891   2.9419   3.7218

          k = 0.0644 0.4087 0.0000 (  4116 PWs)   bands (ev):

   -20.7607 -14.7543 -10.6028  -8.2534   0.0052   3.5362   4.4025   4.4122

          k = 0.0644 0.4831 0.0000 (  4120 PWs)   bands (ev):

   -19.5519 -16.4233 -10.9254  -7.0858  -1.6407   4.2337   5.3062   6.1517

          k = 0.0644 0.5574 0.0000 (  4113 PWs)   bands (ev):

   -18.5187 -17.6122 -11.0345  -6.4670  -2.4260   4.1896   7.2132   7.3674

          k = 0.1287 0.2229 0.0000 (  4099 PWs)   bands (ev):

   -22.7509 -10.7213 -10.5151  -9.6139   0.7729   1.5767   2.3750   2.7205

          k = 0.1287 0.2973 0.0000 (  4098 PWs)   bands (ev):

   -22.0098 -12.1477 -10.5539  -9.6448   1.7994   2.4524   2.6387   3.4255

          k = 0.1287 0.3716 0.0000 (  4125 PWs)   bands (ev):

   -21.0712 -13.7853 -11.2483  -8.5727   0.7135   3.1126   3.9385   4.7732

          k = 0.1287 0.4459 0.0000 (  4125 PWs)   bands (ev):

   -19.9489 -15.4460 -11.7038  -7.3786  -0.9965   4.6990   5.5268   5.6092

          k = 0.1287 0.5202 0.0000 (  4123 PWs)   bands (ev):

   -18.7099 -16.9730 -11.9318  -6.3513  -2.3007   5.4864   6.5758   7.2813

          k = 0.1931 0.3344 0.0000 (  4107 PWs)   bands (ev):

   -21.1748 -13.1693 -11.7812  -8.6803   1.0107   2.9685   3.7764   4.6257

          k = 0.1931 0.4087 0.0000 (  4139 PWs)   bands (ev):

   -20.1517 -14.4914 -12.6238  -7.5414  -0.5382   4.4179   5.1919   6.1225

          k = 0.1931 0.4831 0.0000 (  4149 PWs)   bands (ev):

   -18.9690 -15.9726 -13.0549  -6.3536  -1.9947   6.1266   6.6798   7.3038

          k = 0.1931 0.5574 0.0000 (  4151 PWs)   bands (ev):

   -17.9730 -17.0855 -13.1874  -5.6726  -2.7696   7.2294   7.3541   7.9509

          k = 0.2574 0.4459 0.0000 (  4167 PWs)   bands (ev):

   -19.0630 -15.2693 -13.8093  -6.3691  -1.8384   5.9858   6.4366   7.7198

          k = 0.2574 0.5202 0.0000 (  4167 PWs)   bands (ev):

   -17.8782 -16.3620 -14.3642  -5.2392  -3.0222   6.7954   7.7472   8.9676

          k = 0.3218 0.5574 0.0000 (  4179 PWs)   bands (ev):

   -16.8856 -16.8856 -15.0480  -4.1083  -4.1083   6.5833   9.0830   9.0830

     the Fermi energy is    -4.1083 ev

!    total energy              =     -22.78032110 Ry
     estimated scf accuracy    <          9.3E-12 Ry
     smearing contrib. (-TS)   =      -0.00005015 Ry
     internal energy E=F+TS    =     -22.78027095 Ry

     The total energy is F=E-TS. E is the sum of the following terms:
     one-electron contribution =    -398.96569570 Ry
     hartree contribution      =     200.13320419 Ry
     xc contribution           =      -7.07609878 Ry
     ewald contribution        =     183.12831935 Ry

     convergence has been achieved in  30 iterations

     Forces acting on atoms (cartesian axes, Ry/au):

     atom    1 type  1   force =     0.00000000    0.00000000    0.00000000
     atom    2 type  1   force =    -0.00000000   -0.00000000    0.00000000

     Total force =     0.000000     Total SCF correction =     0.000000


     Computing stress (Cartesian axis) and pressure

          total   stress  (Ry/bohr**3)                   (kbar)     P=       -0.26
   0.00005986  -0.00000000  -0.00000000            8.81       -0.00       -0.00
   0.00000000   0.00005986   0.00000000            0.00        8.81        0.00
   0.00000000   0.00000000  -0.00012509            0.00        0.00      -18.40

     Energy error            =      5.5E-03
     Gradient error          =      1.7E-26
     Cell gradient error     =      6.0E-05


     number of scf cycles    =   3
     number of bfgs steps    =   2

     enthalpy old            =     -22.7748284128 Ry
     enthalpy new            =     -22.7803211015 Ry

     CASE: enthalpy_new < enthalpy_old

     new trust radius        =       0.0198850087 bohr
     new conv_thr            =            1.0E-10 Ry

     new unit-cell volume =    743.97967 a.u.^3 (   110.24641 Ang^3 )
     density =      0.36181 g/cm^3

CELL_PARAMETERS (alat=  4.43000000)
   1.039642392  -0.000000000   0.000000000
  -0.519821196   0.900356722   0.000000000
   0.000000000   0.000000000   9.142212190

ATOMIC_POSITIONS (crystal)
C             0.3333333333        0.6666666667        0.5000000000
C             0.6666666667        0.3333333333        0.5000000000



     Writing output data file ./work/LiC443.save/
     NEW-OLD atomic charge density approx. for the potential

     negative rho (up, down):  4.727E-06 0.000E+00
     extrapolated charge    8.05811, renormalised to    8.00000

     total cpu time spent up to now is       13.9 secs

     Self-consistent Calculation

     iteration #  1     ecut=    50.00 Ry     beta= 0.70
     Davidson diagonalization with overlap
     c_bands:  1 eigenvalues not converged
     c_bands:  1 eigenvalues not converged
     c_bands:  1 eigenvalues not converged
     c_bands:  1 eigenvalues not converged
     ethr =  1.00E-06,  avg # of iterations = 15.0

     total cpu time spent up to now is       14.3 secs

     total energy              =     -22.48585857 Ry
     estimated scf accuracy    <       0.14632125 Ry

     iteration #  2     ecut=    50.00 Ry     beta= 0.70
     Davidson diagonalization with overlap
     ethr =  1.83E-03,  avg # of iterations =  8.1

     total cpu time spent up to now is       14.5 secs

     total energy              =     -22.82058331 Ry
     estimated scf accuracy    <       0.08760896 Ry

     iteration #  3     ecut=    50.00 Ry     beta= 0.70
     Davidson diagonalization with overlap
     ethr =  1.10E-03,  avg # of iterations =  2.4

     total cpu time spent up to now is       14.6 secs

     total energy              =     -22.79912964 Ry
     estimated scf accuracy    <       0.02693704 Ry

     iteration #  4     ecut=    50.00 Ry     beta= 0.70
     Davidson diagonalization with overlap
     ethr =  3.37E-04,  avg # of iterations =  3.3

     total cpu time spent up to now is       14.8 secs

     total energy              =     -22.78700827 Ry
     estimated scf accuracy    <       0.01222541 Ry

     iteration #  5     ecut=    50.00 Ry     beta= 0.70
     Davidson diagonalization with overlap
     ethr =  1.53E-04,  avg # of iterations =  3.9

     total cpu time spent up to now is       14.9 secs

     total energy              =     -22.78535510 Ry
     estimated scf accuracy    <       0.00448628 Ry

     iteration #  6     ecut=    50.00 Ry     beta= 0.70
     Davidson diagonalization with overlap
     ethr =  5.61E-05,  avg # of iterations =  3.2

     total cpu time spent up to now is       15.1 secs

     total energy              =     -22.78055474 Ry
     estimated scf accuracy    <       0.00334705 Ry

     iteration #  7     ecut=    50.00 Ry     beta= 0.70
     Davidson diagonalization with overlap
     ethr =  4.18E-05,  avg # of iterations =  7.9

     total cpu time spent up to now is       15.3 secs

     total energy              =     -22.78072005 Ry
     estimated scf accuracy    <       0.00016658 Ry

     iteration #  8     ecut=    50.00 Ry     beta= 0.70
     Davidson diagonalization with overlap
     c_bands:  1 eigenvalues not converged
     ethr =  2.08E-06,  avg # of iterations =  6.2

     total cpu time spent up to now is       15.4 secs

     total energy              =     -22.78048918 Ry
     estimated scf accuracy    <       0.00021283 Ry

     iteration #  9     ecut=    50.00 Ry     beta= 0.70
     Davidson diagonalization with overlap
     ethr =  2.08E-06,  avg # of iterations =  7.2

     total cpu time spent up to now is       15.6 secs

     total energy              =     -22.78049129 Ry
     estimated scf accuracy    <       0.00001474 Ry

     iteration # 10     ecut=    50.00 Ry     beta= 0.70
     Davidson diagonalization with overlap
     ethr =  1.84E-07,  avg # of iterations =  2.0

     total cpu time spent up to now is       15.7 secs

     total energy              =     -22.78049402 Ry
     estimated scf accuracy    <       0.00000092 Ry

     iteration # 11     ecut=    50.00 Ry     beta= 0.70
     Davidson diagonalization with overlap
     ethr =  1.15E-08,  avg # of iterations =  4.6

     total cpu time spent up to now is       15.9 secs

     total energy              =     -22.78049410 Ry
     estimated scf accuracy    <          8.7E-09 Ry

     iteration # 12     ecut=    50.00 Ry     beta= 0.70
     Davidson diagonalization with overlap
     ethr =  1.08E-10,  avg # of iterations =  3.6

     total cpu time spent up to now is       16.0 secs

     total energy              =     -22.78049410 Ry
     estimated scf accuracy    <          3.2E-09 Ry

     iteration # 13     ecut=    50.00 Ry     beta= 0.70
     Davidson diagonalization with overlap
     ethr =  3.99E-11,  avg # of iterations =  1.1

     total cpu time spent up to now is       16.2 secs

     total energy              =     -22.78049410 Ry
     estimated scf accuracy    <          1.2E-09 Ry

     iteration # 14     ecut=    50.00 Ry     beta= 0.70
     Davidson diagonalization with overlap
     ethr =  1.53E-11,  avg # of iterations =  1.1

     total cpu time spent up to now is       16.3 secs

     total energy              =     -22.78049410 Ry
     estimated scf accuracy    <          3.5E-10 Ry

     iteration # 15     ecut=    50.00 Ry     beta= 0.70
     Davidson diagonalization with overlap
     ethr =  4.37E-12,  avg # of iterations =  1.5

     total cpu time spent up to now is       16.4 secs

     End of self-consistent calculation

          k = 0.0000 0.0000 0.0000 (  4027 PWs)   bands (ev):

   -23.9821 -12.0127  -7.1653  -7.1653  -0.9890  -0.2084   0.5731   0.9299

          k = 0.0000 0.0740 0.0000 (  4043 PWs)   bands (ev):

   -23.8749 -11.8842  -7.6065  -7.3966  -0.8432  -0.0604   0.7221   1.0783

          k = 0.0000 0.1481 0.0000 (  4061 PWs)   bands (ev):

   -23.5540 -11.4981  -8.7649  -7.9862  -0.4054   0.3834   1.1690   1.5232

          k = 0.0000 0.2221 0.0000 (  4067 PWs)   bands (ev):

   -23.0215 -10.8621 -10.3465  -8.7199   0.3237   1.1207   1.9138   2.2624

          k = 0.0000 0.2962 0.0000 (  4063 PWs)   bands (ev):

   -22.2811 -12.1132  -9.9931  -9.4299   1.3422   2.1233   2.8807   2.9548

          k = 0.0000 0.3702 0.0000 (  4086 PWs)   bands (ev):

   -21.3429 -13.9152 -10.0198  -8.9232   0.9183   2.6422   3.5014   3.8898

          k = 0.0000 0.4443 0.0000 (  4100 PWs)   bands (ev):

   -20.2186 -15.6525 -10.4347  -7.7418  -0.8978   3.6619   4.2743   5.1055

          k = 0.0000 0.5183 0.0000 (  4112 PWs)   bands (ev):

   -18.9777 -17.2103 -10.6493  -6.7494  -2.2262   3.5779   6.1096   6.9823

          k = 0.0641 0.1111 0.0000 (  4053 PWs)   bands (ev):

   -23.6608 -11.6251  -8.3508  -7.8663  -0.5513   0.2356   1.0200   1.3750

          k = 0.0641 0.1851 0.0000 (  4078 PWs)   bands (ev):

   -23.2342 -11.1153  -9.6269  -8.6227   0.0325   0.8265   1.6161   1.9675

          k = 0.0641 0.2592 0.0000 (  4076 PWs)   bands (ev):

   -22.5977 -11.2408 -10.3614  -9.4043   0.9070   1.7073   2.5098   2.8481

          k = 0.0641 0.3332 0.0000 (  4094 PWs)   bands (ev):

   -21.7587 -12.9947 -10.0869  -9.3875   1.7937   2.0688   2.9160   3.6978

          k = 0.0641 0.4072 0.0000 (  4116 PWs)   bands (ev):

   -20.7268 -14.7496 -10.6050  -8.2454  -0.0613   3.5036   4.2722   4.3670

          k = 0.0641 0.4813 0.0000 (  4120 PWs)   bands (ev):

   -19.5279 -16.4060 -10.9249  -7.0900  -1.6882   4.0901   5.2604   6.1024

          k = 0.0641 0.5553 0.0000 (  4113 PWs)   bands (ev):

   -18.5148 -17.5740 -11.0331  -6.4785  -2.4640   4.0436   7.1533   7.3083

          k = 0.1282 0.2221 0.0000 (  4099 PWs)   bands (ev):

   -22.7036 -10.7435 -10.4859  -9.6236   0.7621   1.5632   2.3614   2.7067

          k = 0.1282 0.2962 0.0000 (  4098 PWs)   bands (ev):

   -21.9673 -12.1623 -10.5561  -9.6235   1.7811   2.3635   2.6085   3.4042

          k = 0.1282 0.3702 0.0000 (  4125 PWs)   bands (ev):

   -21.0350 -13.7890 -11.2464  -8.5615   0.6363   3.0847   3.9066   4.7416

          k = 0.1282 0.4443 0.0000 (  4125 PWs)   bands (ev):

   -19.9209 -15.4378 -11.6992  -7.3792  -1.0542   4.6582   5.4617   5.4822

          k = 0.1282 0.5183 0.0000 (  4123 PWs)   bands (ev):

   -18.6954 -16.9493 -11.9257  -6.3632  -2.3432   5.3359   6.5209   7.2202

          k = 0.1924 0.3332 0.0000 (  4107 PWs)   bands (ev):

   -21.1378 -13.1825 -11.7712  -8.6679   0.9284   2.9416   3.7459   4.5955

          k = 0.1924 0.4072 0.0000 (  4139 PWs)   bands (ev):

   -20.1219 -14.4955 -12.6089  -7.5401  -0.6042   4.3803   5.1499   6.0810

          k = 0.1924 0.4813 0.0000 (  4149 PWs)   bands (ev):

   -18.9490 -15.9631 -13.0397  -6.3644  -2.0447   6.0753   6.6237   7.1480

          k = 0.1924 0.5553 0.0000 (  4151 PWs)   bands (ev):

   -17.9706 -17.0569 -13.1721  -5.6911  -2.8105   7.0719   7.8826   8.0999

          k = 0.2565 0.4443 0.0000 (  4167 PWs)   bands (ev):

   -19.0415 -15.2754 -13.7797  -6.3793  -1.8923   5.9361   6.3832   7.6655

          k = 0.2565 0.5183 0.0000 (  4167 PWs)   bands (ev):

   -17.8690 -16.3562 -14.3318  -5.2610  -3.0642   6.7413   7.6809   8.8154

          k = 0.3206 0.5553 0.0000 (  4179 PWs)   bands (ev):

   -16.8866 -16.8866 -14.9978  -4.1410  -4.1410   6.5336   8.9811   8.9811

     the Fermi energy is    -4.1410 ev

!    total energy              =     -22.78049410 Ry
     estimated scf accuracy    <          1.6E-11 Ry
     smearing contrib. (-TS)   =      -0.00005015 Ry
     internal energy E=F+TS    =     -22.78044395 Ry

     The total energy is F=E-TS. E is the sum of the following terms:
     one-electron contribution =    -396.02589503 Ry
     hartree contribution      =     198.65559352 Ry
     xc contribution           =      -7.06006401 Ry
     ewald contribution        =     181.64992157 Ry

     convergence has been achieved in  15 iterations

     Forces acting on atoms (cartesian axes, Ry/au):

     atom    1 type  1   force =     0.00000000    0.00000000    0.00000000
     atom    2 type  1   force =     0.00000000    0.00000000    0.00000000

     Total force =     0.000000     Total SCF correction =     0.000000


     Computing stress (Cartesian axis) and pressure

          total   stress  (Ry/bohr**3)                   (kbar)     P=       -5.72
   0.00000438  -0.00000000  -0.00000000            0.64       -0.00       -0.00
  -0.00000000   0.00000438   0.00000000           -0.00        0.64        0.00
   0.00000000   0.00000000  -0.00012534            0.00        0.00      -18.44

     Energy error            =      1.7E-04
     Gradient error          =      0.0E+00
     Cell gradient error     =      4.4E-06


     number of scf cycles    =   4
     number of bfgs steps    =   3

     enthalpy old            =     -22.7803211015 Ry
     enthalpy new            =     -22.7804941025 Ry

     CASE: enthalpy_new < enthalpy_old

     new trust radius        =       0.0015750835 bohr
     new conv_thr            =            1.0E-10 Ry

     new unit-cell volume =    744.40935 a.u.^3 (   110.31008 Ang^3 )
     density =      0.36160 g/cm^3

CELL_PARAMETERS (alat=  4.43000000)
   1.039942569  -0.000000000   0.000000000
  -0.519971284   0.900616683   0.000000000
   0.000000000   0.000000000   9.142212190

ATOMIC_POSITIONS (crystal)
C             0.3333333333        0.6666666667        0.5000000000
C             0.6666666667        0.3333333333        0.5000000000



     Writing output data file ./work/LiC443.save/
     NEW-OLD atomic charge density approx. for the potential
     extrapolated charge    8.00461, renormalised to    8.00000

     total cpu time spent up to now is       16.5 secs

     Self-consistent Calculation

     iteration #  1     ecut=    50.00 Ry     beta= 0.70
     Davidson diagonalization with overlap
     c_bands:  1 eigenvalues not converged
     ethr =  1.00E-06,  avg # of iterations =  6.4

     Threshold (ethr) on eigenvalues was too large:
     Diagonalizing with lowered threshold

     Davidson diagonalization with overlap
     ethr =  8.02E-08,  avg # of iterations =  1.0

     total cpu time spent up to now is       16.7 secs

     total energy              =     -22.78048216 Ry
     estimated scf accuracy    <       0.00000664 Ry

     iteration #  2     ecut=    50.00 Ry     beta= 0.70
     Davidson diagonalization with overlap
     ethr =  8.30E-08,  avg # of iterations =  5.7

     total cpu time spent up to now is       16.9 secs

     total energy              =     -22.78049546 Ry
     estimated scf accuracy    <       0.00000619 Ry

     iteration #  3     ecut=    50.00 Ry     beta= 0.70
     Davidson diagonalization with overlap
     ethr =  7.74E-08,  avg # of iterations =  1.0

     total cpu time spent up to now is       17.0 secs

     total energy              =     -22.78049508 Ry
     estimated scf accuracy    <       0.00000143 Ry

     iteration #  4     ecut=    50.00 Ry     beta= 0.70
     Davidson diagonalization with overlap
     ethr =  1.79E-08,  avg # of iterations =  1.9

     total cpu time spent up to now is       17.2 secs

     total energy              =     -22.78049517 Ry
     estimated scf accuracy    <       0.00000024 Ry

     iteration #  5     ecut=    50.00 Ry     beta= 0.70
     Davidson diagonalization with overlap
     ethr =  2.98E-09,  avg # of iterations =  1.0

     total cpu time spent up to now is       17.3 secs

     total energy              =     -22.78049516 Ry
     estimated scf accuracy    <       0.00000024 Ry

     iteration #  6     ecut=    50.00 Ry     beta= 0.70
     Davidson diagonalization with overlap
     ethr =  2.98E-09,  avg # of iterations =  1.0

     total cpu time spent up to now is       17.4 secs

     total energy              =     -22.78049502 Ry
     estimated scf accuracy    <       0.00000021 Ry

     iteration #  7     ecut=    50.00 Ry     beta= 0.70
     Davidson diagonalization with overlap
     ethr =  2.59E-09,  avg # of iterations =  2.0

     total cpu time spent up to now is       17.5 secs

     total energy              =     -22.78049505 Ry
     estimated scf accuracy    <          2.3E-09 Ry

     iteration #  8     ecut=    50.00 Ry     beta= 0.70
     Davidson diagonalization with overlap
     ethr =  2.82E-11,  avg # of iterations =  2.1

     total cpu time spent up to now is       17.6 secs

     total energy              =     -22.78049506 Ry
     estimated scf accuracy    <          1.9E-10 Ry

     iteration #  9     ecut=    50.00 Ry     beta= 0.70
     Davidson diagonalization with overlap
     ethr =  2.37E-12,  avg # of iterations =  2.3

     total cpu time spent up to now is       17.7 secs

     End of self-consistent calculation

          k = 0.0000 0.0000 0.0000 (  4027 PWs)   bands (ev):

   -23.9779 -12.0094  -7.1681  -7.1681  -0.9889  -0.2085   0.5731   0.9299

          k = 0.0000 0.0740 0.0000 (  4043 PWs)   bands (ev):

   -23.8708 -11.8810  -7.6092  -7.3993  -0.8432  -0.0606   0.7220   1.0782

          k = 0.0000 0.1480 0.0000 (  4061 PWs)   bands (ev):

   -23.5500 -11.4953  -8.7673  -7.9884  -0.4057   0.3829   1.1686   1.5228

          k = 0.0000 0.2221 0.0000 (  4067 PWs)   bands (ev):

   -23.0177 -10.8596 -10.3482  -8.7215   0.3230   1.1198   1.9130   2.2616

          k = 0.0000 0.2961 0.0000 (  4063 PWs)   bands (ev):

   -22.2777 -12.1142  -9.9913  -9.4310   1.3410   2.1216   2.8733   2.9535

          k = 0.0000 0.3701 0.0000 (  4086 PWs)   bands (ev):

   -21.3400 -13.9154 -10.0204  -8.9222   0.9122   2.6402   3.4990   3.8790

          k = 0.0000 0.4441 0.0000 (  4100 PWs)   bands (ev):

   -20.2164 -15.6517 -10.4350  -7.7417  -0.9023   3.6510   4.2708   5.1022

          k = 0.0000 0.5182 0.0000 (  4112 PWs)   bands (ev):

   -18.9765 -17.2083 -10.6494  -6.7502  -2.2295   3.5665   6.1055   6.9778

          k = 0.0641 0.1110 0.0000 (  4053 PWs)   bands (ev):

   -23.6568 -11.6222  -8.3534  -7.8686  -0.5515   0.2353   1.0198   1.3748

          k = 0.0641 0.1851 0.0000 (  4078 PWs)   bands (ev):

   -23.2303 -11.1126  -9.6291  -8.6244   0.0320   0.8258   1.6155   1.9669

          k = 0.0641 0.2591 0.0000 (  4076 PWs)   bands (ev):

   -22.5942 -11.2422 -10.3593  -9.4054   0.9060   1.7060   2.5087   2.8470

          k = 0.0641 0.3331 0.0000 (  4094 PWs)   bands (ev):

   -21.7556 -12.9953 -10.0876  -9.3862   1.7868   2.0671   2.9138   3.6960

          k = 0.0641 0.4071 0.0000 (  4116 PWs)   bands (ev):

   -20.7242 -14.7494 -10.6054  -8.2449  -0.0667   3.5009   4.2610   4.3641

          k = 0.0641 0.4812 0.0000 (  4120 PWs)   bands (ev):

   -19.5262 -16.4048 -10.9250  -7.0904  -1.6921   4.0786   5.2567   6.0984

          k = 0.0641 0.5552 0.0000 (  4113 PWs)   bands (ev):

   -18.5146 -17.5711 -11.0331  -6.4795  -2.4671   4.0319   7.1485   7.3036

          k = 0.1282 0.2221 0.0000 (  4099 PWs)   bands (ev):

   -22.7000 -10.7453 -10.4837  -9.6246   0.7612   1.5619   2.3603   2.7056

          k = 0.1282 0.2961 0.0000 (  4098 PWs)   bands (ev):

   -21.9641 -12.1636 -10.5564  -9.6219   1.7796   2.3562   2.6063   3.4025

          k = 0.1282 0.3701 0.0000 (  4125 PWs)   bands (ev):

   -21.0322 -13.7894 -11.2464  -8.5607   0.6301   3.0824   3.9040   4.7392

          k = 0.1282 0.4441 0.0000 (  4125 PWs)   bands (ev):

   -19.9188 -15.4373 -11.6990  -7.3793  -1.0589   4.6549   5.4499   5.4786

          k = 0.1282 0.5182 0.0000 (  4123 PWs)   bands (ev):

   -18.6945 -16.9476 -11.9254  -6.3643  -2.3467   5.3239   6.5165   7.2153

          k = 0.1923 0.3331 0.0000 (  4107 PWs)   bands (ev):

   -21.1350 -13.1837 -11.7705  -8.6671   0.9217   2.9395   3.7434   4.5932

          k = 0.1923 0.4071 0.0000 (  4139 PWs)   bands (ev):

   -20.1197 -14.4960 -12.6079  -7.5401  -0.6095   4.3773   5.1465   6.0778

          k = 0.1923 0.4812 0.0000 (  4149 PWs)   bands (ev):

   -18.9475 -15.9625 -13.0386  -6.3653  -2.0488   6.0711   6.6192   7.1356

          k = 0.1923 0.5552 0.0000 (  4151 PWs)   bands (ev):

   -17.9706 -17.0548 -13.1710  -5.6927  -2.8139   7.0593   7.8771   8.0946

          k = 0.2564 0.4441 0.0000 (  4167 PWs)   bands (ev):

   -19.0400 -15.2760 -13.7775  -6.3802  -1.8967   5.9321   6.3789   7.6612

          k = 0.2564 0.5182 0.0000 (  4167 PWs)   bands (ev):

   -17.8684 -16.3559 -14.3294  -5.2629  -3.0677   6.7370   7.6755   8.8030

          k = 0.3205 0.5552 0.0000 (  4179 PWs)   bands (ev):

   -16.8868 -16.8868 -14.9940  -4.1437  -4.1437   6.5295   8.9728   8.9728

     the Fermi energy is    -4.1437 ev

!    total energy              =     -22.78049506 Ry
     estimated scf accuracy    <          7.3E-11 Ry
     smearing contrib. (-TS)   =      -0.00005015 Ry
     internal energy E=F+TS    =     -22.78044490 Ry

     The total energy is F=E-TS. E is the sum of the following terms:
     one-electron contribution =    -395.79445801 Ry
     hartree contribution      =     198.53928387 Ry
     xc contribution           =      -7.05880211 Ry
     ewald contribution        =     181.53353134 Ry

     convergence has been achieved in   9 iterations

     Forces acting on atoms (cartesian axes, Ry/au):

     atom    1 type  1   force =     0.00000000    0.00000000    0.00000000
     atom    2 type  1   force =    -0.00000000   -0.00000000    0.00000000

     Total force =     0.000000     Total SCF correction =     0.000000


     Computing stress (Cartesian axis) and pressure

          total   stress  (Ry/bohr**3)                   (kbar)     P=       -6.14
   0.00000006  -0.00000000   0.00000000            0.01       -0.00        0.00
  -0.00000000   0.00000006   0.00000000           -0.00        0.01        0.00
   0.00000000   0.00000000  -0.00012533            0.00        0.00      -18.44

     Energy error            =      9.5E-07
     Gradient error          =      1.7E-26
     Cell gradient error     =      5.6E-08


     number of scf cycles    =   5
     number of bfgs steps    =   4

     enthalpy old            =     -22.7804941025 Ry
     enthalpy new            =     -22.7804950552 Ry

     CASE: enthalpy_new < enthalpy_old

     small trust_radius: resetting bfgs history

     new trust radius        =       0.0000076457 bohr
     new conv_thr            =            1.0E-10 Ry

     new unit-cell volume =    744.41144 a.u.^3 (   110.31039 Ang^3 )
     density =      0.36160 g/cm^3

CELL_PARAMETERS (alat=  4.43000000)
   1.039944026  -0.000000000   0.000000000
  -0.519972013   0.900617945   0.000000000
   0.000000000   0.000000000   9.142212190

ATOMIC_POSITIONS (crystal)
C             0.3333333333        0.6666666667        0.5000000000
C             0.6666666667        0.3333333333        0.5000000000



     Writing output data file ./work/LiC443.save/
     NEW-OLD atomic charge density approx. for the potential
     extrapolated charge    8.00002, renormalised to    8.00000

     total cpu time spent up to now is       17.8 secs

     Self-consistent Calculation

     iteration #  1     ecut=    50.00 Ry     beta= 0.70
     Davidson diagonalization with overlap
     ethr =  1.00E-06,  avg # of iterations =  1.0

     Threshold (ethr) on eigenvalues was too large:
     Diagonalizing with lowered threshold

     Davidson diagonalization with overlap
     ethr =  3.21E-12,  avg # of iterations =  1.8

     total cpu time spent up to now is       18.0 secs

     total energy              =     -22.78049505 Ry
     estimated scf accuracy    <          2.8E-10 Ry

     iteration #  2     ecut=    50.00 Ry     beta= 0.70
     Davidson diagonalization with overlap
     ethr =  3.54E-12,  avg # of iterations =  2.0

     total cpu time spent up to now is       18.2 secs

     total energy              =     -22.78049506 Ry
     estimated scf accuracy    <          1.4E-10 Ry

     iteration #  3     ecut=    50.00 Ry     beta= 0.70
     Davidson diagonalization with overlap
     ethr =  1.77E-12,  avg # of iterations =  1.0

     total cpu time spent up to now is       18.3 secs

     End of self-consistent calculation

          k = 0.0000 0.0000 0.0000 (  4027 PWs)   bands (ev):

   -23.9778 -12.0094  -7.1681  -7.1681  -0.9889  -0.2085   0.5731   0.9299

          k = 0.0000 0.0740 0.0000 (  4043 PWs)   bands (ev):

   -23.8707 -11.8810  -7.6092  -7.3993  -0.8431  -0.0606   0.7219   1.0782

          k = 0.0000 0.1480 0.0000 (  4061 PWs)   bands (ev):

   -23.5500 -11.4952  -8.7672  -7.9884  -0.4057   0.3830   1.1686   1.5228

          k = 0.0000 0.2221 0.0000 (  4067 PWs)   bands (ev):

   -23.0176 -10.8596 -10.3482  -8.7215   0.3230   1.1199   1.9130   2.2616

          k = 0.0000 0.2961 0.0000 (  4063 PWs)   bands (ev):

   -22.2777 -12.1141  -9.9913  -9.4309   1.3410   2.1216   2.8733   2.9534

          k = 0.0000 0.3701 0.0000 (  4086 PWs)   bands (ev):

   -21.3400 -13.9154 -10.0203  -8.9221   0.9122   2.6402   3.4990   3.8790

          k = 0.0000 0.4441 0.0000 (  4100 PWs)   bands (ev):

   -20.2163 -15.6516 -10.4349  -7.7417  -0.9023   3.6510   4.2708   5.1022

          k = 0.0000 0.5182 0.0000 (  4112 PWs)   bands (ev):

   -18.9765 -17.2082 -10.6494  -6.7502  -2.2295   3.5664   6.1055   6.9778

          k = 0.0641 0.1110 0.0000 (  4053 PWs)   bands (ev):

   -23.6567 -11.6221  -8.3534  -7.8685  -0.5514   0.2353   1.0198   1.3748

          k = 0.0641 0.1851 0.0000 (  4078 PWs)   bands (ev):

   -23.2303 -11.1126  -9.6290  -8.6243   0.0320   0.8258   1.6155   1.9669

          k = 0.0641 0.2591 0.0000 (  4076 PWs)   bands (ev):

   -22.5941 -11.2422 -10.3592  -9.4053   0.9060   1.7060   2.5087   2.8470

          k = 0.0641 0.3331 0.0000 (  4094 PWs)   bands (ev):

   -21.7556 -12.9953 -10.0876  -9.3861   1.7868   2.0671   2.9139   3.6960

          k = 0.0641 0.4071 0.0000 (  4116 PWs)   bands (ev):

   -20.7242 -14.7494 -10.6053  -8.2449  -0.0667   3.5009   4.2610   4.3641

          k = 0.0641 0.4812 0.0000 (  4120 PWs)   bands (ev):

   -19.5261 -16.4048 -10.9250  -7.0904  -1.6921   4.0786   5.2567   6.0984

          k = 0.0641 0.5552 0.0000 (  4113 PWs)   bands (ev):

   -18.5146 -17.5710 -11.0331  -6.4795  -2.4670   4.0319   7.1485   7.3036

          k = 0.1282 0.2221 0.0000 (  4099 PWs)   bands (ev):

   -22.7000 -10.7453 -10.4836  -9.6245   0.7612   1.5619   2.3603   2.7056

          k = 0.1282 0.2961 0.0000 (  4098 PWs)   bands (ev):

   -21.9640 -12.1635 -10.5563  -9.6219   1.7796   2.3562   2.6063   3.4025

          k = 0.1282 0.3701 0.0000 (  4125 PWs)   bands (ev):

   -21.0322 -13.7894 -11.2463  -8.5607   0.6301   3.0824   3.9040   4.7392

          k = 0.1282 0.4441 0.0000 (  4125 PWs)   bands (ev):

   -19.9188 -15.4372 -11.6989  -7.3793  -1.0589   4.6549   5.4499   5.4786

          k = 0.1282 0.5182 0.0000 (  4123 PWs)   bands (ev):

   -18.6944 -16.9475 -11.9253  -6.3642  -2.3466   5.3239   6.5165   7.2153

          k = 0.1923 0.3331 0.0000 (  4107 PWs)   bands (ev):

   -21.1350 -13.1836 -11.7704  -8.6670   0.9217   2.9395   3.7434   4.5932

          k = 0.1923 0.4071 0.0000 (  4139 PWs)   bands (ev):

   -20.1197 -14.4960 -12.6079  -7.5401  -0.6095   4.3773   5.1465   6.0778

          k = 0.1923 0.4812 0.0000 (  4149 PWs)   bands (ev):

   -18.9475 -15.9625 -13.0385  -6.3653  -2.0487   6.0711   6.6192   7.1356

          k = 0.1923 0.5552 0.0000 (  4151 PWs)   bands (ev):

   -17.9706 -17.0547 -13.1710  -5.6927  -2.8138   7.0593   7.8771   8.0946

          k = 0.2564 0.4441 0.0000 (  4167 PWs)   bands (ev):

   -19.0399 -15.2759 -13.7774  -6.3802  -1.8967   5.9321   6.3789   7.6612

          k = 0.2564 0.5182 0.0000 (  4167 PWs)   bands (ev):

   -17.8683 -16.3559 -14.3293  -5.2629  -3.0677   6.7370   7.6755   8.8030

          k = 0.3205 0.5552 0.0000 (  4179 PWs)   bands (ev):

   -16.8868 -16.8868 -14.9939  -4.1436  -4.1436   6.5296   8.9728   8.9728

     the Fermi energy is    -4.1436 ev

!    total energy              =     -22.78049506 Ry
     estimated scf accuracy    <          2.5E-11 Ry
     smearing contrib. (-TS)   =      -0.00005015 Ry
     internal energy E=F+TS    =     -22.78044491 Ry

     The total energy is F=E-TS. E is the sum of the following terms:
     one-electron contribution =    -395.79332304 Ry
     hartree contribution      =     198.53870608 Ry
     xc contribution           =      -7.05879457 Ry
     ewald contribution        =     181.53296662 Ry

     convergence has been achieved in   3 iterations

     Forces acting on atoms (cartesian axes, Ry/au):

     atom    1 type  1   force =     0.00000000    0.00000000    0.00000000
     atom    2 type  1   force =     0.00000000    0.00000000    0.00000000

     Total force =     0.000000     Total SCF correction =     0.000000


     Computing stress (Cartesian axis) and pressure

          total   stress  (Ry/bohr**3)                   (kbar)     P=       -6.14
   0.00000004  -0.00000000  -0.00000000            0.01       -0.00       -0.00
  -0.00000000   0.00000004   0.00000000           -0.00        0.01        0.00
  -0.00000000   0.00000000  -0.00012534           -0.00        0.00      -18.44

     Energy error            =      1.1E-10
     Gradient error          =      0.0E+00
     Cell gradient error     =      3.6E-08


     number of scf cycles    =   6
     number of bfgs steps    =   5

     enthalpy old            =     -22.7804950552 Ry
     enthalpy new            =     -22.7804950553 Ry

     CASE: enthalpy_new < enthalpy_old

     Message from routine bfgs:
     history already reset at previous step: stopping
     small trust_radius: resetting bfgs history

     new trust radius        =       0.0000049749 bohr
     new conv_thr            =            1.0E-10 Ry

     new unit-cell volume =    744.41279 a.u.^3 (   110.31059 Ang^3 )
     density =      0.36160 g/cm^3

CELL_PARAMETERS (alat=  4.43000000)
   1.039944974  -0.000000000   0.000000000
  -0.519972487   0.900618766   0.000000000
   0.000000000   0.000000000   9.142212190

ATOMIC_POSITIONS (crystal)
C             0.3333333333        0.6666666667        0.5000000000
C             0.6666666667        0.3333333333        0.5000000000



     Writing output data file ./work/LiC443.save/
     NEW-OLD atomic charge density approx. for the potential
     extrapolated charge    8.00001, renormalised to    8.00000

     total cpu time spent up to now is       18.4 secs

     Self-consistent Calculation

     iteration #  1     ecut=    50.00 Ry     beta= 0.70
     Davidson diagonalization with overlap
     ethr =  1.00E-06,  avg # of iterations =  1.0

     Threshold (ethr) on eigenvalues was too large:
     Diagonalizing with lowered threshold

     Davidson diagonalization with overlap
     ethr =  1.31E-12,  avg # of iterations =  1.8

     total cpu time spent up to now is       18.6 secs

     total energy              =     -22.78049506 Ry
     estimated scf accuracy    <          1.2E-10 Ry

     iteration #  2     ecut=    50.00 Ry     beta= 0.70
     Davidson diagonalization with overlap
     ethr =  1.45E-12,  avg # of iterations =  2.1

     total cpu time spent up to now is       18.7 secs

     End of self-consistent calculation

          k = 0.0000 0.0000 0.0000 (  4027 PWs)   bands (ev):

   -23.9778 -12.0094  -7.1681  -7.1681  -0.9889  -0.2085   0.5731   0.9299

          k = 0.0000 0.0740 0.0000 (  4043 PWs)   bands (ev):

   -23.8707 -11.8810  -7.6092  -7.3993  -0.8432  -0.0606   0.7219   1.0782

          k = 0.0000 0.1480 0.0000 (  4061 PWs)   bands (ev):

   -23.5500 -11.4952  -8.7673  -7.9884  -0.4057   0.3830   1.1686   1.5228

          k = 0.0000 0.2221 0.0000 (  4067 PWs)   bands (ev):

   -23.0177 -10.8596 -10.3482  -8.7216   0.3230   1.1199   1.9130   2.2616

          k = 0.0000 0.2961 0.0000 (  4063 PWs)   bands (ev):

[...]

          k = 0.1282 0.5182 0.0000 (  4123 PWs)   bands (ev):

   -18.6944 -16.9476 -11.9254  -6.3643  -2.3467   5.3238   6.5165   7.2152

          k = 0.1923 0.3331 0.0000 (  4107 PWs)   bands (ev):

   -21.1350 -13.1837 -11.7705  -8.6671   0.9217   2.9394   3.7434   4.5932

          k = 0.1923 0.4071 0.0000 (  4139 PWs)   bands (ev):

   -20.1197 -14.4960 -12.6079  -7.5401  -0.6096   4.3773   5.1464   6.0777

          k = 0.1923 0.4812 0.0000 (  4149 PWs)   bands (ev):

   -18.9475 -15.9625 -13.0386  -6.3653  -2.0488   6.0711   6.6192   7.1355

          k = 0.1923 0.5552 0.0000 (  4151 PWs)   bands (ev):

   -17.9706 -17.0548 -13.1710  -5.6927  -2.8139   7.0592   7.8770   8.0945

          k = 0.2564 0.4441 0.0000 (  4167 PWs)   bands (ev):

   -19.0399 -15.2760 -13.7775  -6.3802  -1.8967   5.9321   6.3789   7.6612

          k = 0.2564 0.5182 0.0000 (  4167 PWs)   bands (ev):

   -17.8684 -16.3559 -14.3293  -5.2629  -3.0677   6.7369   7.6755   8.8029

          k = 0.3205 0.5552 0.0000 (  4179 PWs)   bands (ev):

   -16.8868 -16.8868 -14.9940  -4.1437  -4.1437   6.5295   8.9728   8.9728

     the Fermi energy is    -4.1437 ev

!    total energy              =     -22.78049506 Ry
     estimated scf accuracy    <          6.1E-11 Ry
     smearing contrib. (-TS)   =      -0.00005015 Ry
     internal energy E=F+TS    =     -22.78044491 Ry

     The total energy is F=E-TS. E is the sum of the following terms:
     one-electron contribution =    -395.79260027 Ry
     hartree contribution      =     198.53834760 Ry
     xc contribution           =      -7.05879141 Ry
     ewald contribution        =     181.53259917 Ry

     convergence has been achieved in   2 iterations

     Forces acting on atoms (cartesian axes, Ry/au):

     atom    1 type  1   force =    -0.00000000   -0.00000000    0.00000000
     atom    2 type  1   force =     0.00000000    0.00000000    0.00000000

     Total force =     0.000000     Total SCF correction =     0.000000


     Computing stress (Cartesian axis) and pressure

          total   stress  (Ry/bohr**3)                   (kbar)     P=       -6.14
   0.00000002  -0.00000000   0.00000000            0.00       -0.00        0.00
  -0.00000000   0.00000002   0.00000000           -0.00        0.00        0.00
   0.00000000   0.00000000  -0.00012533            0.00        0.00      -18.44

     Message from routine bfgs:
     history already reset at previous step: stopping
     Energy error            =      5.8E-11
     Gradient error          =      1.7E-26
     Cell gradient error     =      2.1E-08


     bfgs converged in   7 scf cycles and   6 bfgs steps
     (criteria: energy <  1.0E-04 Ry, force <  1.0E-08Ry/Bohr, cell <  1.0E-03kbar)

     End of BFGS Geometry Optimization

     Final enthalpy =     -22.7804950553 Ry

     File ./work/LiC443.bfgs deleted, as requested
Begin final coordinates
     new unit-cell volume =    744.41279 a.u.^3 (   110.31059 Ang^3 )
     density =      0.36160 g/cm^3

CELL_PARAMETERS (alat=  4.43000000)
   1.039944974  -0.000000000   0.000000000
  -0.519972487   0.900618766   0.000000000
   0.000000000   0.000000000   9.142212190

ATOMIC_POSITIONS (crystal)
C             0.3333333333        0.6666666667        0.5000000000
C             0.6666666667        0.3333333333        0.5000000000
End final coordinates



     Writing output data file ./work/LiC443.save/

     Final scf calculation at the relaxed structure.
     The G-vectors are recalculated for the final unit cell
     Results may differ from those at the preceding step.
 
     Parallelization info
     --------------------
     sticks:   dense  smooth     PW     G-vecs:    dense   smooth      PW
     Min           9       9      2                 1107     1107     170
     Max          10      10      3                 1134     1134     215
     Sum         295     295     91                35661    35661    6361
 


     bravais-lattice index     =            4
     lattice parameter (alat)  =       4.4300  a.u.
     unit-cell volume          =     744.4128 (a.u.)^3
     number of atoms/cell      =            2
     number of atomic types    =            1
     number of electrons       =         8.00
     number of Kohn-Sham states=            8
     kinetic-energy cutoff     =      50.0000  Ry
     charge density cutoff     =     200.0000  Ry
     scf convergence threshold =      1.0E-10
     mixing beta               =       0.7000
     number of iterations used =            8  plain     mixing
     press convergence thresh. =      1.0E-03
     Exchange-correlation= PBE
                           (   1   4   3   4   0   0   0)

     celldm(1)=   4.430000  celldm(2)=   0.000000  celldm(3)=   9.142212
     celldm(4)=   0.000000  celldm(5)=   0.000000  celldm(6)=   0.000000

     crystal axes: (cart. coord. in units of alat)
               a(1) = (   1.039945  -0.000000   0.000000 )  
               a(2) = (  -0.519972   0.900619   0.000000 )  
               a(3) = (   0.000000   0.000000   9.142212 )  

     reciprocal axes: (cart. coord. in units 2 pi/alat)
               b(1) = (  0.961589  0.555174  0.000000 )  
               b(2) = (  0.000000  1.110348  0.000000 )  
               b(3) = (  0.000000  0.000000  0.109383 )  


     PseudoPot. # 1 for C  read from file:
     /home/yhkim/qe-6.7/pseudo/ONCV1/1.2/C_ONCV_PBE-1.2.upf
     MD5 check sum: 1a5f83a7b1f58d24996abe00ed223ac6
     Pseudo is Norm-conserving, Zval =  4.0
     Generated using ONCVPSP code by D. R. Hamann
     Using radial grid of  602 points,  4 beta functions with: 
                l(1) =   0
                l(2) =   0
                l(3) =   1
                l(4) =   1

     atomic species   valence    mass     pseudopotential
        C              4.00    12.01070     C ( 1.00)

     24 Sym. Ops., with inversion, found



   Cartesian axes

     site n.     atom                  positions (alat units)
         1           C   tau(   1) = (  -0.0000000   0.6004125   4.5711061  )
         2           C   tau(   2) = (   0.5199725   0.3002063   4.5711061  )

     number of k points=    27  Methfessel-Paxton smearing, width (Ry)=  0.0100
                       cart. coord. in units 2pi/alat
        k(    1) = (   0.0000000   0.0000000   0.0000000), wk =   0.0088889
        k(    2) = (   0.0000000   0.0740232   0.0000000), wk =   0.0533333
        k(    3) = (   0.0000000   0.1480464   0.0000000), wk =   0.0533333
        k(    4) = (   0.0000000   0.2220695   0.0000000), wk =   0.0533333
        k(    5) = (   0.0000000   0.2960927   0.0000000), wk =   0.0533333
        k(    6) = (   0.0000000   0.3701159   0.0000000), wk =   0.0533333
        k(    7) = (   0.0000000   0.4441391   0.0000000), wk =   0.0533333
        k(    8) = (   0.0000000   0.5181623   0.0000000), wk =   0.0533333
        k(    9) = (   0.0641060   0.1110348   0.0000000), wk =   0.0533333
        k(   10) = (   0.0641060   0.1850580   0.0000000), wk =   0.1066667
        k(   11) = (   0.0641060   0.2590811   0.0000000), wk =   0.1066667
        k(   12) = (   0.0641060   0.3331043   0.0000000), wk =   0.1066667
        k(   13) = (   0.0641060   0.4071275   0.0000000), wk =   0.1066667
        k(   14) = (   0.0641060   0.4811507   0.0000000), wk =   0.1066667
        k(   15) = (   0.0641060   0.5551739   0.0000000), wk =   0.0533333
        k(   16) = (   0.1282119   0.2220695   0.0000000), wk =   0.0533333
        k(   17) = (   0.1282119   0.2960927   0.0000000), wk =   0.1066667
        k(   18) = (   0.1282119   0.3701159   0.0000000), wk =   0.1066667
        k(   19) = (   0.1282119   0.4441391   0.0000000), wk =   0.1066667
        k(   20) = (   0.1282119   0.5181623   0.0000000), wk =   0.1066667
        k(   21) = (   0.1923179   0.3331043   0.0000000), wk =   0.0533333
        k(   22) = (   0.1923179   0.4071275   0.0000000), wk =   0.1066667
        k(   23) = (   0.1923179   0.4811507   0.0000000), wk =   0.1066667
        k(   24) = (   0.1923179   0.5551739   0.0000000), wk =   0.0533333
        k(   25) = (   0.2564238   0.4441391   0.0000000), wk =   0.0533333
        k(   26) = (   0.2564238   0.5181623   0.0000000), wk =   0.1066667
        k(   27) = (   0.3205298   0.5551739   0.0000000), wk =   0.0177778

     Dense  grid:    35661 G-vectors     FFT dimensions: (  24,  24, 192)

     Estimated max dynamical RAM per process >       1.94 MB

     Estimated total dynamical RAM >      62.19 MB
 ----2D----2D----2D----2D----2D----2D----2D----2D----2D----2D----2D----2D
  The code is running with the 2D cutoff
  Please refer to:
  Sohier, T., Calandra, M., & Mauri, F. (2017), 
  Density functional perturbation theory for gated two-dimensional heterostructu
 res:
  Theoretical developments and application to flexural phonons in graphene.
  Physical Review B, 96(7), 75448. https://doi.org/10.1103/PhysRevB.96.075448
 ----2D----2D----2D----2D----2D----2D----2D----2D----2D----2D----2D----2D

     Initial potential from superposition of free atoms

     starting charge    7.98607, renormalised to    8.00000

     negative rho (up, down):  1.111E-04 0.000E+00
     Starting wfcs are random

     total cpu time spent up to now is       18.8 secs

     Self-consistent Calculation

     iteration #  1     ecut=    50.00 Ry     beta= 0.70
     Davidson diagonalization with overlap
     c_bands:  1 eigenvalues not converged
     c_bands:  3 eigenvalues not converged
     c_bands:  5 eigenvalues not converged
     c_bands:  5 eigenvalues not converged
     c_bands:  4 eigenvalues not converged
     c_bands:  4 eigenvalues not converged
     c_bands:  2 eigenvalues not converged
     c_bands:  2 eigenvalues not converged
     c_bands:  4 eigenvalues not converged
     c_bands:  3 eigenvalues not converged
     c_bands:  4 eigenvalues not converged
     c_bands:  4 eigenvalues not converged
     c_bands:  3 eigenvalues not converged
     c_bands:  2 eigenvalues not converged
     c_bands:  2 eigenvalues not converged
     c_bands:  5 eigenvalues not converged
     c_bands:  4 eigenvalues not converged
     c_bands:  4 eigenvalues not converged
     c_bands:  3 eigenvalues not converged
     c_bands:  3 eigenvalues not converged
     c_bands:  4 eigenvalues not converged
     c_bands:  3 eigenvalues not converged
     c_bands:  4 eigenvalues not converged
     c_bands:  3 eigenvalues not converged
     c_bands:  4 eigenvalues not converged
     c_bands:  3 eigenvalues not converged
     c_bands:  3 eigenvalues not converged
     ethr =  1.00E-06,  avg # of iterations = 22.2

     negative rho (up, down):  2.188E-05 0.000E+00

     total cpu time spent up to now is       19.6 secs

     total energy              =     -22.75732986 Ry
     estimated scf accuracy    <       0.20945087 Ry

     iteration #  2     ecut=    50.00 Ry     beta= 0.70
     Davidson diagonalization with overlap
     ethr =  2.62E-03,  avg # of iterations =  2.2

     negative rho (up, down):  2.702E-06 0.000E+00

     total cpu time spent up to now is       19.7 secs

     total energy              =     -22.78906606 Ry
     estimated scf accuracy    <       0.00237691 Ry

     iteration #  3     ecut=    50.00 Ry     beta= 0.70
     Davidson diagonalization with overlap
     ethr =  2.97E-05,  avg # of iterations =  8.6

     total cpu time spent up to now is       19.9 secs

     total energy              =     -22.78948178 Ry
     estimated scf accuracy    <       0.00017559 Ry

     iteration #  4     ecut=    50.00 Ry     beta= 0.70
     Davidson diagonalization with overlap
     c_bands:  1 eigenvalues not converged
     ethr =  2.19E-06,  avg # of iterations =  5.7

     total cpu time spent up to now is       20.0 secs

     total energy              =     -22.78949652 Ry
     estimated scf accuracy    <       0.00000120 Ry

     iteration #  5     ecut=    50.00 Ry     beta= 0.70
     Davidson diagonalization with overlap
     ethr =  1.50E-08,  avg # of iterations =  3.7

     total cpu time spent up to now is       20.2 secs

     total energy              =     -22.78949820 Ry
     estimated scf accuracy    <       0.00000004 Ry

     iteration #  6     ecut=    50.00 Ry     beta= 0.70
     Davidson diagonalization with overlap
     ethr =  5.15E-10,  avg # of iterations =  2.2

     total cpu time spent up to now is       20.3 secs

     total energy              =     -22.78949821 Ry
     estimated scf accuracy    <          9.8E-10 Ry

     iteration #  7     ecut=    50.00 Ry     beta= 0.70
     Davidson diagonalization with overlap
     ethr =  1.23E-11,  avg # of iterations =  3.2

     total cpu time spent up to now is       20.4 secs

     End of self-consistent calculation

          k = 0.0000 0.0000 0.0000 (  4399 PWs)   bands (ev):

   -23.9656 -12.0048  -7.2122  -7.2122  -0.9867  -0.2040   0.5823   0.9376

          k = 0.0000 0.0740 0.0000 (  4419 PWs)   bands (ev):

   -23.8585 -11.8763  -7.6434  -7.4437  -0.8409  -0.0561   0.7311   1.0859

          k = 0.0000 0.1480 0.0000 (  4409 PWs)   bands (ev):

   -23.5382 -11.4911  -8.7822  -8.0242  -0.4036   0.3873   1.1778   1.5305

          k = 0.0000 0.2221 0.0000 (  4417 PWs)   bands (ev):

   -23.0071 -10.8561 -10.3531  -8.7523   0.3248   1.1241   1.9220   2.2693

          k = 0.0000 0.2961 0.0000 (  4451 PWs)   bands (ev):

   -22.2692 -12.1180  -9.9877  -9.4607   1.3422   2.1251   2.8679   2.9625

          k = 0.0000 0.3701 0.0000 (  4459 PWs)   bands (ev):

   -21.3317 -13.9155 -10.0486  -8.9197   0.9117   2.6410   3.5029   3.8809

          k = 0.0000 0.4441 0.0000 (  4477 PWs)   bands (ev):

   -20.2091 -15.6486 -10.4656  -7.7391  -0.9021   3.6552   4.2729   5.1058

          k = 0.0000 0.5182 0.0000 (  4471 PWs)   bands (ev):

   -18.9678 -17.2048 -10.6784  -6.7479  -2.2298   3.5741   6.1063   6.9806

          k = 0.0641 0.1110 0.0000 (  4401 PWs)   bands (ev):

   -23.6447 -11.6184  -8.3712  -7.9028  -0.5493   0.2397   1.0289   1.3824

          k = 0.0641 0.1851 0.0000 (  4424 PWs)   bands (ev):

   -23.2193 -11.1090  -9.6360  -8.6517   0.0339   0.8300   1.6246   1.9745

          k = 0.0641 0.2591 0.0000 (  4428 PWs)   bands (ev):

   -22.5847 -11.2451 -10.3558  -9.4287   0.9075   1.7102   2.5179   2.8546

          k = 0.0641 0.3331 0.0000 (  4456 PWs)   bands (ev):

   -21.7470 -12.9961 -10.1085  -9.3833   1.7821   2.0683   2.9177   3.7050

          k = 0.0641 0.4071 0.0000 (  4460 PWs)   bands (ev):

   -20.7160 -14.7475 -10.6236  -8.2423  -0.0670   3.5013   4.2635   4.3678

          k = 0.0641 0.4812 0.0000 (  4466 PWs)   bands (ev):

   -19.5181 -16.4012 -10.9445  -7.0887  -1.6929   4.0824   5.2579   6.1014

          k = 0.0641 0.5552 0.0000 (  4440 PWs)   bands (ev):

   -18.5046 -17.5701 -11.0521  -6.4764  -2.4657   4.0366   7.1491   7.3034

          k = 0.1282 0.2221 0.0000 (  4419 PWs)   bands (ev):

   -22.6903 -10.7479 -10.4790  -9.6422   0.7628   1.5662   2.3694   2.7134

          k = 0.1282 0.2961 0.0000 (  4440 PWs)   bands (ev):

   -21.9561 -12.1654 -10.5705  -9.6192   1.7808   2.3530   2.6098   3.4116

          k = 0.1282 0.3701 0.0000 (  4453 PWs)   bands (ev):

   -21.0243 -13.7886 -11.2579  -8.5577   0.6295   3.0833   3.9076   4.7480

          k = 0.1282 0.4441 0.0000 (  4469 PWs)   bands (ev):

   -19.9113 -15.4354 -11.7112  -7.3775  -1.0605   4.6551   5.4487   5.4816

          k = 0.1282 0.5182 0.0000 (  4455 PWs)   bands (ev):

   -18.6864 -16.9443 -11.9375  -6.3631  -2.3461   5.3230   6.5170   7.2171

          k = 0.1923 0.3331 0.0000 (  4443 PWs)   bands (ev):

   -21.1277 -13.1841 -11.7783  -8.6647   0.9165   2.9404   3.7470   4.6022

          k = 0.1923 0.4071 0.0000 (  4433 PWs)   bands (ev):

   -20.1119 -14.4933 -12.6123  -7.5373  -0.6107   4.3780   5.1495   6.0867

          k = 0.1923 0.4812 0.0000 (  4452 PWs)   bands (ev):

   -18.9397 -15.9585 -13.0416  -6.3637  -2.0504   6.0711   6.6209   7.1315

          k = 0.1923 0.5552 0.0000 (  4433 PWs)   bands (ev):

   -17.9607 -17.0508 -13.1744  -5.6908  -2.8151   7.0551   7.2866   7.8765

          k = 0.2564 0.4441 0.0000 (  4443 PWs)   bands (ev):

   -19.0320 -15.2704 -13.7806  -6.3777  -1.8959   5.9323   6.3808   7.6718

          k = 0.2564 0.5182 0.0000 (  4442 PWs)   bands (ev):

   -17.8598 -16.3498 -14.3308  -5.2620  -3.0684   6.7391   7.6744   8.7954

          k = 0.3205 0.5552 0.0000 (  4407 PWs)   bands (ev):

   -16.8771 -16.8771 -14.9952  -4.1430  -4.1430   6.5322   8.9689   8.9689

     the Fermi energy is    -4.1430 ev

!    total energy              =     -22.78949821 Ry
     estimated scf accuracy    <          1.5E-11 Ry
     smearing contrib. (-TS)   =      -0.00005015 Ry
     internal energy E=F+TS    =     -22.78944806 Ry

     The total energy is F=E-TS. E is the sum of the following terms:
     one-electron contribution =    -395.80930679 Ry
     hartree contribution      =     198.54648139 Ry
     xc contribution           =      -7.05922190 Ry
     ewald contribution        =     181.53259924 Ry

     convergence has been achieved in   7 iterations

     Forces acting on atoms (cartesian axes, Ry/au):

     atom    1 type  1   force =    -0.00000000   -0.00000000    0.00000000
     atom    2 type  1   force =     0.00000000    0.00000000    0.00000000

     Total force =     0.000000     Total SCF correction =     0.000000


     Computing stress (Cartesian axis) and pressure

          total   stress  (Ry/bohr**3)                   (kbar)     P=       -0.98
   0.00004552   0.00000000  -0.00000000            6.70        0.00       -0.00
   0.00000000   0.00004552  -0.00000000            0.00        6.70       -0.00
  -0.00000000  -0.00000000  -0.00011106           -0.00       -0.00      -16.34


     Writing output data file ./work/LiC443.save/
 
     init_run     :      0.14s CPU      0.16s WALL (       2 calls)
     electrons    :     18.28s CPU     19.83s WALL (       8 calls)
     update_pot   :      0.07s CPU      0.07s WALL (       6 calls)
     forces       :      0.06s CPU      0.07s WALL (       8 calls)
     stress       :      0.17s CPU      0.17s WALL (       8 calls)

     Called by init_run:
     wfcinit      :      0.10s CPU      0.11s WALL (       2 calls)
     potinit      :      0.02s CPU      0.02s WALL (       2 calls)
     hinit0       :      0.01s CPU      0.01s WALL (       2 calls)

     Called by electrons:
     c_bands      :     16.18s CPU     17.41s WALL (     103 calls)
     sum_band     :      1.86s CPU      1.99s WALL (     103 calls)
     v_of_rho     :      0.18s CPU      0.20s WALL (     108 calls)
     mix_rho      :      0.04s CPU      0.04s WALL (     103 calls)

     Called by c_bands:
     init_us_2    :      0.10s CPU      0.11s WALL (    6048 calls)
     cegterg      :     15.90s CPU     17.07s WALL (    2826 calls)

     Called by *egterg:
     cdiaghg      :      1.47s CPU      1.57s WALL (   16327 calls)
     h_psi        :     13.36s CPU     14.36s WALL (   16631 calls)
     g_psi        :      0.04s CPU      0.04s WALL (   13751 calls)

     Called by h_psi:
     h_psi:calbec :      0.44s CPU      0.47s WALL (   16631 calls)
     vloc_psi     :     12.66s CPU     13.61s WALL (   16631 calls)
     add_vuspsi   :      0.12s CPU      0.14s WALL (   16631 calls)

     General routines
     calbec       :      0.46s CPU      0.49s WALL (   17711 calls)
     fft          :      0.17s CPU      0.18s WALL (    1145 calls)
     ffts         :      0.01s CPU      0.01s WALL (     103 calls)
     fftw         :     13.72s CPU     14.75s WALL (  191994 calls)
 
     Parallel routines
     fft_scatt_xy :      0.72s CPU      0.76s WALL (  193242 calls)
     fft_scatt_yz :      5.78s CPU      6.21s WALL (  193242 calls)
 
     PWSCF        :     18.80s CPU     20.69s WALL

 
   This run was terminated on:  13:38:34  19Jan2024            

=------------------------------------------------------------------------------=
   JOB DONE.
=------------------------------------------------------------------------------=
