
     Program PWSCF v.6.7MaX starts on 19Jan2024 at 14: 5:12 

     This program is part of the open-source Quantum ESPRESSO suite
     for quantum simulation of materials; please cite
         "P. Giannozzi et al., J. Phys.:Condens. Matter 21 395502 (2009);
         "P. Giannozzi et al., J. Phys.:Condens. Matter 29 465901 (2017);
          URL http://www.quantum-espresso.org", 
     in publications or presentations arising from this work. More details at
     http://www.quantum-espresso.org/quote

     Parallel version (MPI), running on    32 processors

     MPI processes distributed on     1 nodes
     R & G space division:  proc/nbgrp/npool/nimage =      32
     Waiting for input...
     Reading input from standard input

     Current dimensions of program PWSCF are:
     Max number of different atomic species (ntypx) = 10
     Max number of k-points (npk) =  40000
     Max angular momentum in pseudopotentials (lmaxx) =  3
     Message from routine read_pp_mesh:
     mesh size missing, using the one in header

     Subspace diagonalization in iterative solution of the eigenvalue problem:
     a serial algorithm will be used

 
     Parallelization info
     --------------------
     sticks:   dense  smooth     PW     G-vecs:    dense   smooth      PW
     Min           7       7      2                  919      919     162
     Max           9       9      3                  946      946     191
     Sum         253     253     85                29823    29823    5587
 


     bravais-lattice index     =            4
     lattice parameter (alat)  =       4.2100  a.u.
     unit-cell volume          =     621.6556 (a.u.)^3
     number of atoms/cell      =            2
     number of atomic types    =            1
     number of electrons       =         8.00
     number of Kohn-Sham states=            8
     kinetic-energy cutoff     =      50.0000  Ry
     charge density cutoff     =     200.0000  Ry
     scf convergence threshold =      1.0E-08
     mixing beta               =       0.7000
     number of iterations used =            8  plain     mixing
     energy convergence thresh.=      1.0E-04
     force convergence thresh. =      1.0E-08
     press convergence thresh. =      1.0E-03
     Exchange-correlation= PBE
                           (   1   4   3   4   0   0   0)
     nstep                     =           50


     celldm(1)=   4.210000  celldm(2)=   0.000000  celldm(3)=   9.619952
     celldm(4)=   0.000000  celldm(5)=   0.000000  celldm(6)=   0.000000

     crystal axes: (cart. coord. in units of alat)
               a(1) = (   1.000000   0.000000   0.000000 )  
               a(2) = (  -0.500000   0.866025   0.000000 )  
               a(3) = (   0.000000   0.000000   9.619952 )  

     reciprocal axes: (cart. coord. in units 2 pi/alat)
               b(1) = (  1.000000  0.577350  0.000000 )  
               b(2) = (  0.000000  1.154701  0.000000 )  
               b(3) = (  0.000000  0.000000  0.103951 )  


     PseudoPot. # 1 for C  read from file:
     /home/yhkim/qe-6.7/pseudo/ONCV1/1.2/C_ONCV_PBE-1.2.upf
     MD5 check sum: 1a5f83a7b1f58d24996abe00ed223ac6
     Pseudo is Norm-conserving, Zval =  4.0
     Generated using ONCVPSP code by D. R. Hamann
     Using radial grid of  602 points,  4 beta functions with: 
                l(1) =   0
                l(2) =   0
                l(3) =   1
                l(4) =   1

     atomic species   valence    mass     pseudopotential
        C              4.00    12.01070     C ( 1.00)

     24 Sym. Ops., with inversion, found



   Cartesian axes

     site n.     atom                  positions (alat units)
         1           C   tau(   1) = (  -0.0000000   0.5773503   4.8099762  )
         2           C   tau(   2) = (   0.5000000   0.2886751   4.8099762  )

     number of k points=    27  Methfessel-Paxton smearing, width (Ry)=  0.0100
                       cart. coord. in units 2pi/alat
        k(    1) = (   0.0000000   0.0000000   0.0000000), wk =   0.0088889
        k(    2) = (   0.0000000   0.0769800   0.0000000), wk =   0.0533333
        k(    3) = (   0.0000000   0.1539601   0.0000000), wk =   0.0533333
        k(    4) = (   0.0000000   0.2309401   0.0000000), wk =   0.0533333
        k(    5) = (   0.0000000   0.3079201   0.0000000), wk =   0.0533333
        k(    6) = (   0.0000000   0.3849002   0.0000000), wk =   0.0533333
        k(    7) = (   0.0000000   0.4618802   0.0000000), wk =   0.0533333
        k(    8) = (   0.0000000   0.5388603   0.0000000), wk =   0.0533333
        k(    9) = (   0.0666667   0.1154701   0.0000000), wk =   0.0533333
        k(   10) = (   0.0666667   0.1924501   0.0000000), wk =   0.1066667
        k(   11) = (   0.0666667   0.2694301   0.0000000), wk =   0.1066667
        k(   12) = (   0.0666667   0.3464102   0.0000000), wk =   0.1066667
        k(   13) = (   0.0666667   0.4233902   0.0000000), wk =   0.1066667
        k(   14) = (   0.0666667   0.5003702   0.0000000), wk =   0.1066667
        k(   15) = (   0.0666667   0.5773503   0.0000000), wk =   0.0533333
        k(   16) = (   0.1333333   0.2309401   0.0000000), wk =   0.0533333
        k(   17) = (   0.1333333   0.3079201   0.0000000), wk =   0.1066667
        k(   18) = (   0.1333333   0.3849002   0.0000000), wk =   0.1066667
        k(   19) = (   0.1333333   0.4618802   0.0000000), wk =   0.1066667
        k(   20) = (   0.1333333   0.5388603   0.0000000), wk =   0.1066667
        k(   21) = (   0.2000000   0.3464102   0.0000000), wk =   0.0533333
        k(   22) = (   0.2000000   0.4233902   0.0000000), wk =   0.1066667
        k(   23) = (   0.2000000   0.5003702   0.0000000), wk =   0.1066667
        k(   24) = (   0.2000000   0.5773503   0.0000000), wk =   0.0533333
        k(   25) = (   0.2666667   0.4618802   0.0000000), wk =   0.0533333
        k(   26) = (   0.2666667   0.5388603   0.0000000), wk =   0.1066667
        k(   27) = (   0.3333333   0.5773503   0.0000000), wk =   0.0177778

     Dense  grid:    29823 G-vectors     FFT dimensions: (  20,  20, 192)

     Estimated max dynamical RAM per process >       1.69 MB

     Estimated total dynamical RAM >      54.13 MB
 ----2D----2D----2D----2D----2D----2D----2D----2D----2D----2D----2D----2D
  The code is running with the 2D cutoff
  Please refer to:
  Sohier, T., Calandra, M., & Mauri, F. (2017), 
  Density functional perturbation theory for gated two-dimensional heterostructu
 res:
  Theoretical developments and application to flexural phonons in graphene.
  Physical Review B, 96(7), 75448. https://doi.org/10.1103/PhysRevB.96.075448
 ----2D----2D----2D----2D----2D----2D----2D----2D----2D----2D----2D----2D

     Initial potential from superposition of free atoms

     starting charge    7.98607, renormalised to    8.00000

     negative rho (up, down):  1.071E-04 0.000E+00
     Starting wfcs are random

     total cpu time spent up to now is        0.1 secs

     Self-consistent Calculation

     iteration #  1     ecut=    50.00 Ry     beta= 0.70
     Davidson diagonalization with overlap
     ethr =  1.00E-02,  avg # of iterations = 11.4

     negative rho (up, down):  1.300E-07 0.000E+00

     total cpu time spent up to now is        0.5 secs

     total energy              =     -22.61069581 Ry
     estimated scf accuracy    <       0.37545848 Ry

     iteration #  2     ecut=    50.00 Ry     beta= 0.70
     Davidson diagonalization with overlap
     ethr =  4.69E-03,  avg # of iterations =  2.0

     total cpu time spent up to now is        0.7 secs

     total energy              =     -22.66689187 Ry
     estimated scf accuracy    <       0.00259618 Ry

     iteration #  3     ecut=    50.00 Ry     beta= 0.70
     Davidson diagonalization with overlap
     ethr =  3.25E-05,  avg # of iterations = 11.5

     total cpu time spent up to now is        1.0 secs

     total energy              =     -22.66821690 Ry
     estimated scf accuracy    <       0.00017566 Ry

     iteration #  4     ecut=    50.00 Ry     beta= 0.70
     Davidson diagonalization with overlap
     ethr =  2.20E-06,  avg # of iterations =  5.2

     total cpu time spent up to now is        1.1 secs

     total energy              =     -22.66825331 Ry
     estimated scf accuracy    <       0.00000204 Ry

     iteration #  5     ecut=    50.00 Ry     beta= 0.70
     Davidson diagonalization with overlap
     ethr =  2.55E-08,  avg # of iterations =  3.8

     total cpu time spent up to now is        1.3 secs

     total energy              =     -22.66825599 Ry
     estimated scf accuracy    <       0.00000017 Ry

     iteration #  6     ecut=    50.00 Ry     beta= 0.70
     Davidson diagonalization with overlap
     ethr =  2.11E-09,  avg # of iterations =  2.0

     total cpu time spent up to now is        1.4 secs

     End of self-consistent calculation

          k = 0.0000 0.0000 0.0000 (  3739 PWs)   bands (ev):

   -25.3715 -13.1654  -6.1063  -1.0328  -0.2108   0.5598   0.9150   2.2386

          k = 0.0000 0.0770 0.0000 (  3743 PWs)   bands (ev):

   -25.2476 -13.0055  -6.5938  -6.4127  -0.8592  -0.0329   0.7380   1.0933

          k = 0.0000 0.1540 0.0000 (  3708 PWs)   bands (ev):

   -24.8766 -12.5272  -7.8938  -7.1743  -0.3371   0.5005   1.2729   1.6277

          k = 0.0000 0.2309 0.0000 (  3706 PWs)   bands (ev):

   -24.2608 -11.7408  -9.6995  -8.1125   0.5339   1.3874   2.1646   2.5168

          k = 0.0000 0.3079 0.0000 (  3694 PWs)   bands (ev):

   -23.4038 -11.7328 -10.6577  -9.0132   1.7521   2.6193   3.4130   3.7502

          k = 0.0000 0.3849 0.0000 (  3710 PWs)   bands (ev):

   -22.3123 -13.8198  -9.7560  -9.3160   2.9218   3.3139   4.2901   5.0169

          k = 0.0000 0.4619 0.0000 (  3730 PWs)   bands (ev):

   -20.9948 -15.8418 -10.2804  -7.8136   0.5719   5.2101   6.1971   6.9617

          k = 0.0000 0.5389 0.0000 (  3718 PWs)   bands (ev):

   -19.4636 -17.7345 -10.5489  -6.5126  -1.1925   7.2637   7.6457   8.4755

          k = 0.0667 0.1155 0.0000 (  3721 PWs)   bands (ev):

   -25.0002 -12.6860  -7.4125  -7.0203  -0.5111   0.3228   1.0946   1.4497

          k = 0.0667 0.1925 0.0000 (  3711 PWs)   bands (ev):

   -24.5067 -12.0533  -8.8544  -7.9804   0.1863   1.0331   1.8081   2.1616

          k = 0.0667 0.2694 0.0000 (  3697 PWs)   bands (ev):

   -23.7704 -11.1175 -10.7111  -8.9526   1.2319   2.0950   2.8785   3.2264

          k = 0.0667 0.3464 0.0000 (  3704 PWs)   bands (ev):

   -22.7965 -12.7415  -9.9005  -9.7952   2.6231   3.4515   4.1964   4.3053

          k = 0.0667 0.4234 0.0000 (  3719 PWs)   bands (ev):

   -21.5924 -14.7834 -10.4330  -8.4596   1.6953   4.3548   5.3101   6.0864

          k = 0.0667 0.5004 0.0000 (  3724 PWs)   bands (ev):

   -20.1687 -16.7340 -10.8304  -6.9729  -0.4445   6.4129   7.4105   7.9678

          k = 0.0667 0.5774 0.0000 (  3716 PWs)   bands (ev):

   -18.5877 -18.4927 -10.9651  -6.1567  -1.4869   7.9179   8.7710   8.9227

          k = 0.1333 0.2309 0.0000 (  3703 PWs)   bands (ev):

   -23.8929 -11.2713 -10.0651  -9.2527   1.0592   1.9194   2.7006   3.0503

          k = 0.1333 0.3079 0.0000 (  3715 PWs)   bands (ev):

   -23.0398 -11.7067 -10.3720 -10.1964   2.2790   3.1525   3.9498   4.2854

          k = 0.1333 0.3849 0.0000 (  3713 PWs)   bands (ev):

   -21.9538 -13.6262 -11.1626  -8.8626   2.6959   3.8415   4.7569   5.5550

          k = 0.1333 0.4619 0.0000 (  3709 PWs)   bands (ev):

   -20.6450 -15.5717 -11.6870  -7.3607   0.4788   5.7393   6.6688   7.5144

          k = 0.1333 0.5389 0.0000 (  3719 PWs)   bands (ev):

   -19.1272 -17.4250 -11.9535  -6.0365  -1.2333   7.9544   8.8456   9.3581

          k = 0.2000 0.3464 0.0000 (  3727 PWs)   bands (ev):

   -22.0750 -12.7524 -11.9216  -9.0005   3.1433   3.6701   4.5545   5.3775

          k = 0.2000 0.4234 0.0000 (  3712 PWs)   bands (ev):

   -20.8848 -14.3417 -12.8314  -7.5750   1.1686   5.3978   6.2687   7.1602

          k = 0.2000 0.5004 0.0000 (  3698 PWs)   bands (ev):

   -19.4831 -16.1537 -13.2562  -6.0697  -0.7089   7.4472   8.1307   9.3520

          k = 0.2000 0.5774 0.0000 (  3696 PWs)   bands (ev):

   -17.9124 -17.8744 -13.3912  -5.1828  -1.7296   9.0261   9.6992   9.8580

          k = 0.2667 0.4619 0.0000 (  3703 PWs)   bands (ev):

   -19.6029 -15.0223 -14.4176  -6.1020  -0.4353   7.2758   7.8232   9.1169

          k = 0.2667 0.5389 0.0000 (  3695 PWs)   bands (ev):

   -18.1320 -16.5107 -14.9208  -4.6671  -1.9329   8.2111   9.4307  10.9311

          k = 0.3333 0.5774 0.0000 (  3699 PWs)   bands (ev):

   -16.7531 -16.7531 -16.2945  -3.2563  -3.2563   7.8796  11.4188  11.4189

     the Fermi energy is    -3.2139 ev

!    total energy              =     -22.66825603 Ry
     estimated scf accuracy    <          4.5E-09 Ry
     smearing contrib. (-TS)   =      -0.00003668 Ry
     internal energy E=F+TS    =     -22.66821935 Ry

     The total energy is F=E-TS. E is the sum of the following terms:
     one-electron contribution =    -475.11450739 Ry
     hartree contribution      =     238.41694682 Ry
     xc contribution           =      -7.47515340 Ry
     ewald contribution        =     221.50449462 Ry

     convergence has been achieved in   6 iterations

     Forces acting on atoms (cartesian axes, Ry/au):

     atom    1 type  1   force =    -0.00000000   -0.00000000    0.00000000
     atom    2 type  1   force =     0.00000000    0.00000000    0.00000000

     Total force =     0.000000     Total SCF correction =     0.000000


     Computing stress (Cartesian axis) and pressure

          total   stress  (Ry/bohr**3)                   (kbar)     P=      175.09
   0.00185528   0.00000000  -0.00000000          272.92        0.00       -0.00
   0.00000000   0.00185528   0.00000000            0.00      272.92        0.00
   0.00000000  -0.00000000  -0.00013987            0.00       -0.00      -20.58


     BFGS Geometry Optimization
     Energy error            =      0.0E+00
     Gradient error          =      1.7E-26
     Cell gradient error     =      1.9E-03


     number of scf cycles    =   1
     number of bfgs steps    =   0

     enthalpy new            =     -22.6682560267 Ry

     new trust radius        =       0.2312881426 bohr
     new conv_thr            =       0.0000000100 Ry

     new unit-cell volume =    680.66007 a.u.^3 (   100.86342 Ang^3 )
     density =      0.39547 g/cm^3

CELL_PARAMETERS (alat=  4.21000000)
   1.046381891   0.000000000   0.000000000
  -0.523190946   0.906193300   0.000000000
   0.000000000   0.000000000   9.619952494

ATOMIC_POSITIONS (crystal)
C             0.3333333333        0.6666666667        0.5000000000
C             0.6666666667        0.3333333333        0.5000000000



     Writing output data file ./work/LiC421.save/
     NEW-OLD atomic charge density approx. for the potential

     negative rho (up, down):  1.317E-04 0.000E+00
     extrapolated charge    8.69229, renormalised to    8.00000

     total cpu time spent up to now is        1.5 secs

     Self-consistent Calculation

     iteration #  1     ecut=    50.00 Ry     beta= 0.70
     Davidson diagonalization with overlap
     c_bands:  1 eigenvalues not converged
     c_bands:  1 eigenvalues not converged
     c_bands:  2 eigenvalues not converged
     c_bands:  2 eigenvalues not converged
     c_bands:  4 eigenvalues not converged
     c_bands:  4 eigenvalues not converged
     c_bands:  5 eigenvalues not converged
     c_bands:  3 eigenvalues not converged
     c_bands:  2 eigenvalues not converged
     c_bands:  3 eigenvalues not converged
     c_bands:  3 eigenvalues not converged
     c_bands:  4 eigenvalues not converged
     c_bands:  5 eigenvalues not converged
     c_bands:  4 eigenvalues not converged
     c_bands:  3 eigenvalues not converged
     c_bands:  5 eigenvalues not converged
     c_bands:  5 eigenvalues not converged
     c_bands:  5 eigenvalues not converged
     c_bands:  4 eigenvalues not converged
     c_bands:  5 eigenvalues not converged
     c_bands:  5 eigenvalues not converged
     c_bands:  2 eigenvalues not converged
     ethr =  1.00E-06,  avg # of iterations = 23.9

     negative rho (up, down):  1.173E-05 0.000E+00

     total cpu time spent up to now is        2.4 secs

     total energy              =     700.69005708 Ry
     estimated scf accuracy    <     397.17355555 Ry

     iteration #  2     ecut=    50.00 Ry     beta= 0.70
     Davidson diagonalization with overlap
     c_bands:  3 eigenvalues not converged
     c_bands:  5 eigenvalues not converged
     c_bands:  2 eigenvalues not converged
     c_bands:  1 eigenvalues not converged
     c_bands:  1 eigenvalues not converged
     c_bands:  5 eigenvalues not converged
     c_bands:  2 eigenvalues not converged
     c_bands:  1 eigenvalues not converged
     c_bands:  5 eigenvalues not converged
     c_bands:  4 eigenvalues not converged
     c_bands:  4 eigenvalues not converged
     c_bands:  5 eigenvalues not converged
     c_bands:  2 eigenvalues not converged
     c_bands:  1 eigenvalues not converged
     c_bands:  1 eigenvalues not converged
     c_bands:  2 eigenvalues not converged
     c_bands:  2 eigenvalues not converged
     c_bands:  3 eigenvalues not converged
     c_bands:  3 eigenvalues not converged
     ethr =  1.00E-02,  avg # of iterations = 40.0

     negative rho (up, down):  5.038E-06 0.000E+00

     total cpu time spent up to now is        4.0 secs

     total energy              =    -155.66472495 Ry
     estimated scf accuracy    <     201.97113614 Ry

     iteration #  3     ecut=    50.00 Ry     beta= 0.70
     Davidson diagonalization with overlap
     ethr =  1.00E-02,  avg # of iterations =  5.9

     negative rho (up, down):  6.675E-07 0.000E+00

     total cpu time spent up to now is        4.2 secs

     total energy              =     -54.48098872 Ry
     estimated scf accuracy    <      69.80965891 Ry

     iteration #  4     ecut=    50.00 Ry     beta= 0.70
     Davidson diagonalization with overlap
     ethr =  1.00E-02,  avg # of iterations =  3.7

     negative rho (up, down):  9.733E-07 0.000E+00

     total cpu time spent up to now is        4.3 secs

     total energy              =     -51.66001198 Ry
     estimated scf accuracy    <      16.93648662 Ry

     iteration #  5     ecut=    50.00 Ry     beta= 0.70
     Davidson diagonalization with overlap
     ethr =  1.00E-02,  avg # of iterations =  1.3

     total cpu time spent up to now is        4.4 secs

     total energy              =     -22.55439030 Ry
     estimated scf accuracy    <      15.32035321 Ry

     iteration #  6     ecut=    50.00 Ry     beta= 0.70
     Davidson diagonalization with overlap
     ethr =  1.00E-02,  avg # of iterations =  3.3

     negative rho (up, down):  2.272E-07 0.000E+00

     total cpu time spent up to now is        4.6 secs

     total energy              =     -34.96249734 Ry
     estimated scf accuracy    <       0.25971380 Ry

     iteration #  7     ecut=    50.00 Ry     beta= 0.70
     Davidson diagonalization with overlap
     ethr =  3.25E-03,  avg # of iterations =  7.6

     negative rho (up, down):  2.336E-07 0.000E+00

     total cpu time spent up to now is        4.8 secs

     total energy              =     -35.59054626 Ry
     estimated scf accuracy    <       6.59255104 Ry

     iteration #  8     ecut=    50.00 Ry     beta= 0.70
     Davidson diagonalization with overlap
     ethr =  3.25E-03,  avg # of iterations =  1.0

     negative rho (up, down):  2.139E-07 0.000E+00

     total cpu time spent up to now is        4.9 secs

     total energy              =     -36.13484771 Ry
     estimated scf accuracy    <       6.74840743 Ry

     iteration #  9     ecut=    50.00 Ry     beta= 0.70
     Davidson diagonalization with overlap
     ethr =  3.25E-03,  avg # of iterations =  1.0

     negative rho (up, down):  5.291E-08 0.000E+00

     total cpu time spent up to now is        5.1 secs

     total energy              =     -30.12936424 Ry
     estimated scf accuracy    <       7.02744179 Ry

     iteration # 10     ecut=    50.00 Ry     beta= 0.70
     Davidson diagonalization with overlap
     ethr =  3.25E-03,  avg # of iterations =  1.0

     negative rho (up, down):  2.103E-02 0.000E+00

     total cpu time spent up to now is        5.2 secs

     total energy              =     -22.53376205 Ry
     estimated scf accuracy    <       3.90916982 Ry

     iteration # 11     ecut=    50.00 Ry     beta= 0.70
     Davidson diagonalization with overlap
     ethr =  3.25E-03,  avg # of iterations = 10.2

     negative rho (up, down):  5.541E-03 0.000E+00

     total cpu time spent up to now is        5.4 secs

     total energy              =     -22.76679528 Ry
     estimated scf accuracy    <       0.26632085 Ry

     iteration # 12     ecut=    50.00 Ry     beta= 0.70
     Davidson diagonalization with overlap
     ethr =  3.25E-03,  avg # of iterations =  1.0

     negative rho (up, down):  2.311E-01 0.000E+00

     total cpu time spent up to now is        5.5 secs

     total energy              =     -22.91198022 Ry
     estimated scf accuracy    <       0.13750753 Ry

     iteration # 13     ecut=    50.00 Ry     beta= 0.70
     Davidson diagonalization with overlap
     ethr =  1.72E-03,  avg # of iterations =  2.7

     negative rho (up, down):  1.595E-01 0.000E+00

     total cpu time spent up to now is        5.7 secs

     total energy              =     -23.16789266 Ry
     estimated scf accuracy    <       2.29037550 Ry

     iteration # 14     ecut=    50.00 Ry     beta= 0.70
     Davidson diagonalization with overlap
     ethr =  1.72E-03,  avg # of iterations =  7.1

     negative rho (up, down):  1.557E-01 0.000E+00

     total cpu time spent up to now is        5.9 secs

     total energy              =     -23.37178003 Ry
     estimated scf accuracy    <      34.14434079 Ry

     iteration # 15     ecut=    50.00 Ry     beta= 0.70
     Davidson diagonalization with overlap
     ethr =  1.72E-03,  avg # of iterations =  1.7

     negative rho (up, down):  1.151E-01 0.000E+00

     total cpu time spent up to now is        6.0 secs

     total energy              =     -21.76490974 Ry
     estimated scf accuracy    <      24.81091323 Ry

     iteration # 16     ecut=    50.00 Ry     beta= 0.70
     Davidson diagonalization with overlap
     ethr =  1.72E-03,  avg # of iterations =  5.5

     negative rho (up, down):  4.313E-02 0.000E+00

     total cpu time spent up to now is        6.2 secs

     total energy              =     -22.50613325 Ry
     estimated scf accuracy    <       0.83209160 Ry

     iteration # 17     ecut=    50.00 Ry     beta= 0.70
     Davidson diagonalization with overlap
     ethr =  1.72E-03,  avg # of iterations =  6.9

     negative rho (up, down):  4.146E-02 0.000E+00

     total cpu time spent up to now is        6.4 secs

     total energy              =     -22.72406047 Ry
     estimated scf accuracy    <       0.14623782 Ry

     iteration # 18     ecut=    50.00 Ry     beta= 0.70
     Davidson diagonalization with overlap
     ethr =  1.72E-03,  avg # of iterations =  1.4

     negative rho (up, down):  3.447E-02 0.000E+00

     total cpu time spent up to now is        6.5 secs

     total energy              =     -22.72741364 Ry
     estimated scf accuracy    <       0.16246979 Ry

     iteration # 19     ecut=    50.00 Ry     beta= 0.70
     Davidson diagonalization with overlap
     ethr =  1.72E-03,  avg # of iterations =  6.8

     negative rho (up, down):  5.240E-02 0.000E+00

     total cpu time spent up to now is        6.7 secs

     total energy              =     -22.88081057 Ry
     estimated scf accuracy    <       0.10713427 Ry

     iteration # 20     ecut=    50.00 Ry     beta= 0.70
     Davidson diagonalization with overlap
     ethr =  1.34E-03,  avg # of iterations =  1.3

     negative rho (up, down):  2.328E-02 0.000E+00

     total cpu time spent up to now is        6.9 secs

     total energy              =     -22.81369338 Ry
     estimated scf accuracy    <       0.08380289 Ry

     iteration # 21     ecut=    50.00 Ry     beta= 0.70
     Davidson diagonalization with overlap
     ethr =  1.05E-03,  avg # of iterations =  2.2

     negative rho (up, down):  1.290E-02 0.000E+00

     total cpu time spent up to now is        7.0 secs

     total energy              =     -22.74554647 Ry
     estimated scf accuracy    <       0.04701562 Ry

     iteration # 22     ecut=    50.00 Ry     beta= 0.70
     Davidson diagonalization with overlap
     ethr =  5.88E-04,  avg # of iterations =  4.7

     negative rho (up, down):  8.436E-03 0.000E+00

     total cpu time spent up to now is        7.1 secs

     total energy              =     -22.75836271 Ry
     estimated scf accuracy    <       0.00356859 Ry

     iteration # 23     ecut=    50.00 Ry     beta= 0.70
     Davidson diagonalization with overlap
     ethr =  4.46E-05,  avg # of iterations =  6.8

     negative rho (up, down):  5.107E-03 0.000E+00

     total cpu time spent up to now is        7.3 secs

     total energy              =     -22.76477573 Ry
     estimated scf accuracy    <       0.00978414 Ry

     iteration # 24     ecut=    50.00 Ry     beta= 0.70
     Davidson diagonalization with overlap
     ethr =  4.46E-05,  avg # of iterations =  3.5

     negative rho (up, down):  1.282E-02 0.000E+00

     total cpu time spent up to now is        7.5 secs

     total energy              =     -22.74546249 Ry
     estimated scf accuracy    <       0.01200296 Ry

     iteration # 25     ecut=    50.00 Ry     beta= 0.70
     Davidson diagonalization with overlap
     ethr =  4.46E-05,  avg # of iterations =  9.4

     negative rho (up, down):  8.412E-03 0.000E+00

     total cpu time spent up to now is        7.7 secs

     total energy              =     -22.74413140 Ry
     estimated scf accuracy    <       0.00252373 Ry

     iteration # 26     ecut=    50.00 Ry     beta= 0.70
     Davidson diagonalization with overlap
     ethr =  3.15E-05,  avg # of iterations =  7.8

     negative rho (up, down):  3.032E-04 0.000E+00

     total cpu time spent up to now is        7.9 secs

     total energy              =     -22.74419677 Ry
     estimated scf accuracy    <       0.00023150 Ry

     iteration # 27     ecut=    50.00 Ry     beta= 0.70
     Davidson diagonalization with overlap
     ethr =  2.89E-06,  avg # of iterations =  8.9

     negative rho (up, down):  2.754E-04 0.000E+00

     total cpu time spent up to now is        8.1 secs

     total energy              =     -22.74421313 Ry
     estimated scf accuracy    <       0.00001215 Ry

     iteration # 28     ecut=    50.00 Ry     beta= 0.70
     Davidson diagonalization with overlap
     ethr =  1.52E-07,  avg # of iterations =  3.6

     negative rho (up, down):  5.764E-05 0.000E+00

     total cpu time spent up to now is        8.3 secs

     total energy              =     -22.74421588 Ry
     estimated scf accuracy    <       0.00000037 Ry

     iteration # 29     ecut=    50.00 Ry     beta= 0.70
     Davidson diagonalization with overlap
     ethr =  4.61E-09,  avg # of iterations =  5.0

     negative rho (up, down):  6.435E-06 0.000E+00

     total cpu time spent up to now is        8.5 secs

     total energy              =     -22.74421588 Ry
     estimated scf accuracy    <       0.00000005 Ry

     iteration # 30     ecut=    50.00 Ry     beta= 0.70
     Davidson diagonalization with overlap
     ethr =  6.52E-10,  avg # of iterations =  4.4

     total cpu time spent up to now is        8.6 secs

     End of self-consistent calculation

          k = 0.0000 0.0000 0.0000 (  3739 PWs)   bands (ev):

   -24.6702 -12.5583  -6.6764  -6.6764  -1.0153  -0.2170   0.5615   0.9205

          k =-0.0000 0.0736 0.0000 (  3743 PWs)   bands (ev):

   -24.5548 -12.4144  -7.1337  -6.9429  -0.8563  -0.0548   0.7243   1.0830

          k =-0.0000 0.1471 0.0000 (  3708 PWs)   bands (ev):

   -24.2091 -11.9843  -8.3497  -7.6087  -0.3786   0.4315   1.2128   1.5703

          k =-0.0000 0.2207 0.0000 (  3706 PWs)   bands (ev):

   -23.6353 -11.2782 -10.0368  -8.4362   0.4176   1.2397   2.0269   2.3806

          k =-0.0000 0.2943 0.0000 (  3694 PWs)   bands (ev):

   -22.8367 -11.9344 -10.3071  -9.2361   1.5308   2.3571   3.1664   3.4879

          k =-0.0000 0.3678 0.0000 (  3710 PWs)   bands (ev):

   -21.8201 -13.8821  -9.8988  -9.1081   1.8875   2.9562   3.8620   4.6271

          k =-0.0000 0.4414 0.0000 (  3730 PWs)   bands (ev):

   -20.5950 -15.7644 -10.3694  -7.7748  -0.1889   4.6710   5.5223   5.6164

          k =-0.0000 0.5150 0.0000 (  3718 PWs)   bands (ev):

   -19.1875 -17.5070 -10.6106  -6.6371  -1.7239   5.3941   6.7630   7.6855

          k = 0.0637 0.1104 0.0000 (  3721 PWs)   bands (ev):

   -24.3243 -12.1271  -7.9044  -7.4741  -0.5378   0.2695   1.0499   1.4080

          k = 0.0637 0.1839 0.0000 (  3711 PWs)   bands (ev):

   -23.8645 -11.5586  -9.2578  -8.3236   0.0997   0.9170   1.7015   2.0571

          k = 0.0637 0.2575 0.0000 (  3697 PWs)   bands (ev):

   -23.1783 -10.9881 -10.7189  -9.1938   1.0552   1.8839   2.6788   3.0263

          k = 0.0637 0.3311 0.0000 (  3704 PWs)   bands (ev):

   -22.2711 -12.8789  -9.9520  -9.6296   2.3259   2.8355   3.2867   3.9807

          k = 0.0637 0.4046 0.0000 (  3719 PWs)   bands (ev):

   -21.1503 -14.7806 -10.5271  -8.3456   0.7823   3.9052   4.8069   5.5962

          k = 0.0637 0.4782 0.0000 (  3724 PWs)   bands (ev):

   -19.8301 -16.5901 -10.8870  -7.0337  -1.0883   5.7062   6.0427   6.7168

          k = 0.0637 0.5518 0.0000 (  3716 PWs)   bands (ev):

   -18.5399 -18.0437 -11.0090  -6.3265  -1.9888   5.8904   7.9155   8.0615

          k = 0.1274 0.2207 0.0000 (  3703 PWs)   bands (ev):

   -23.2925 -10.8567 -10.4208  -9.4497   0.8972   1.7245   2.5164   2.8670

          k = 0.1274 0.2943 0.0000 (  3715 PWs)   bands (ev):

   -22.4978 -11.9481 -10.4767  -9.8936   2.0112   2.8441   3.6322   3.6569

          k = 0.1274 0.3678 0.0000 (  3713 PWs)   bands (ev):

   -21.4866 -13.7165 -11.2170  -8.7022   1.6212   3.4378   4.3017   5.1215

          k = 0.1274 0.4414 0.0000 (  3709 PWs)   bands (ev):

   -20.2705 -15.5159 -11.7048  -7.3687  -0.3191   5.1683   6.0384   6.9022

          k = 0.1274 0.5150 0.0000 (  3719 PWs)   bands (ev):

   -18.8814 -17.2127 -11.9528  -6.2091  -1.8075   7.1139   7.3440   7.9879

          k = 0.1911 0.3311 0.0000 (  3727 PWs)   bands (ev):

   -21.5996 -12.9903 -11.8476  -8.8247   1.9806   3.2811   4.1224   4.9598

          k = 0.1911 0.4046 0.0000 (  3712 PWs)   bands (ev):

   -20.4930 -14.4243 -12.7357  -7.5547   0.2397   4.8575   5.6737   6.5863

          k = 0.1911 0.4782 0.0000 (  3698 PWs)   bands (ev):

   -19.1981 -16.0623 -13.1673  -6.2234  -1.4063   6.7236   7.3324   8.5300

          k = 0.1911 0.5518 0.0000 (  3696 PWs)   bands (ev):

   -17.9736 -17.4165 -13.3013  -5.4510  -2.2918   8.1033   8.7471   8.8895

          k = 0.2548 0.4414 0.0000 (  3703 PWs)   bands (ev):

   -19.3071 -15.1731 -14.0956  -6.2464  -1.1980   6.5678   7.0596   8.3404

          k = 0.2548 0.5150 0.0000 (  3695 PWs)   bands (ev):

   -17.9789 -16.4206 -14.6627  -4.9795  -2.5263   7.4314   8.5162   9.9787

          k = 0.3186 0.5518 0.0000 (  3699 PWs)   bands (ev):

   -16.8466 -16.8466 -15.5951  -3.7213  -3.7213   7.1663  10.2024  10.2026

     the Fermi energy is    -3.7213 ev

!    total energy              =     -22.74421589 Ry
     estimated scf accuracy    <          5.2E-09 Ry
     smearing contrib. (-TS)   =      -0.00005015 Ry
     internal energy E=F+TS    =     -22.74416574 Ry

     The total energy is F=E-TS. E is the sum of the following terms:
     one-electron contribution =    -433.35645440 Ry
     hartree contribution      =     217.42269306 Ry
     xc contribution           =      -7.26007444 Ry
     ewald contribution        =     200.44967005 Ry

     convergence has been achieved in  30 iterations

     Forces acting on atoms (cartesian axes, Ry/au):

     atom    1 type  1   force =     0.00000000    0.00000000    0.00000000
     atom    2 type  1   force =     0.00000000    0.00000000    0.00000000

     Total force =     0.000000     Total SCF correction =     0.000000


     Computing stress (Cartesian axis) and pressure

          total   stress  (Ry/bohr**3)                   (kbar)     P=       64.61
   0.00073015  -0.00000000   0.00000000          107.41       -0.00        0.00
  -0.00000000   0.00073015   0.00000000           -0.00      107.41        0.00
   0.00000000   0.00000000  -0.00014267            0.00        0.00      -20.99

     Energy error            =      7.6E-02
     Gradient error          =      0.0E+00
     Cell gradient error     =      7.3E-04


     number of scf cycles    =   2
     number of bfgs steps    =   1

     enthalpy old            =     -22.6682560267 Ry
     enthalpy new            =     -22.7442158898 Ry

     CASE: enthalpy_new < enthalpy_old

     new trust radius        =       0.1619290389 bohr
     new conv_thr            =            1.0E-10 Ry

     new unit-cell volume =    723.56202 a.u.^3 (   107.22083 Ang^3 )
     density =      0.37202 g/cm^3

CELL_PARAMETERS (alat=  4.21000000)
   1.078854698   0.000000000   0.000000000
  -0.539427349   0.934315575   0.000000000
   0.000000000   0.000000000   9.619952494

ATOMIC_POSITIONS (crystal)
C             0.3333333333        0.6666666667        0.5000000000
C             0.6666666667        0.3333333333        0.5000000000



     Writing output data file ./work/LiC421.save/
     NEW-OLD atomic charge density approx. for the potential

     negative rho (up, down):  5.905E-05 0.000E+00
     extrapolated charge    8.47352, renormalised to    8.00000

     total cpu time spent up to now is        8.7 secs

     Self-consistent Calculation

     iteration #  1     ecut=    50.00 Ry     beta= 0.70
     Davidson diagonalization with overlap
     c_bands:  1 eigenvalues not converged
     c_bands:  1 eigenvalues not converged
     c_bands:  1 eigenvalues not converged
     c_bands:  2 eigenvalues not converged
     c_bands:  2 eigenvalues not converged
     c_bands:  3 eigenvalues not converged
     c_bands:  1 eigenvalues not converged
     c_bands:  2 eigenvalues not converged
     c_bands:  1 eigenvalues not converged
     c_bands:  1 eigenvalues not converged
     c_bands:  3 eigenvalues not converged
     c_bands:  4 eigenvalues not converged
     c_bands:  3 eigenvalues not converged
     c_bands:  2 eigenvalues not converged
     c_bands:  3 eigenvalues not converged
     c_bands:  3 eigenvalues not converged
     c_bands:  4 eigenvalues not converged
     c_bands:  4 eigenvalues not converged
     c_bands:  2 eigenvalues not converged
     c_bands:  3 eigenvalues not converged
     c_bands:  4 eigenvalues not converged
     c_bands:  4 eigenvalues not converged
     c_bands:  4 eigenvalues not converged
     c_bands:  5 eigenvalues not converged
     c_bands:  5 eigenvalues not converged
     ethr =  1.00E-06,  avg # of iterations = 19.7

     negative rho (up, down):  1.129E-06 0.000E+00

     total cpu time spent up to now is        9.4 secs

     total energy              =     622.43036851 Ry
     estimated scf accuracy    <     357.98856958 Ry

     iteration #  2     ecut=    50.00 Ry     beta= 0.70
     Davidson diagonalization with overlap
     c_bands:  1 eigenvalues not converged
     c_bands:  4 eigenvalues not converged
     c_bands:  1 eigenvalues not converged
     c_bands:  1 eigenvalues not converged
     c_bands:  2 eigenvalues not converged
     c_bands:  1 eigenvalues not converged
     ethr =  1.00E-02,  avg # of iterations = 36.5

     negative rho (up, down):  2.575E-07 0.000E+00

     total cpu time spent up to now is       10.8 secs

     total energy              =    -141.38824002 Ry
     estimated scf accuracy    <     182.43403621 Ry

     iteration #  3     ecut=    50.00 Ry     beta= 0.70
     Davidson diagonalization with overlap
     ethr =  1.00E-02,  avg # of iterations =  4.1

     total cpu time spent up to now is       11.0 secs

     total energy              =     -53.20762191 Ry
     estimated scf accuracy    <      62.99455049 Ry

     iteration #  4     ecut=    50.00 Ry     beta= 0.70
     Davidson diagonalization with overlap
     ethr =  1.00E-02,  avg # of iterations =  4.0

     total cpu time spent up to now is       11.2 secs

     total energy              =     -47.69996669 Ry
     estimated scf accuracy    <      16.40657670 Ry

     iteration #  5     ecut=    50.00 Ry     beta= 0.70
     Davidson diagonalization with overlap
     ethr =  1.00E-02,  avg # of iterations =  1.3

     total cpu time spent up to now is       11.3 secs

     total energy              =     -22.16101693 Ry
     estimated scf accuracy    <      13.40131705 Ry

     iteration #  6     ecut=    50.00 Ry     beta= 0.70
     Davidson diagonalization with overlap
     ethr =  1.00E-02,  avg # of iterations =  3.6

     total cpu time spent up to now is       11.5 secs

     total energy              =     -29.11110336 Ry
     estimated scf accuracy    <       0.12062850 Ry

     iteration #  7     ecut=    50.00 Ry     beta= 0.70
     Davidson diagonalization with overlap
     c_bands:  1 eigenvalues not converged
     ethr =  1.51E-03,  avg # of iterations = 13.0

     total cpu time spent up to now is       11.8 secs

     total energy              =     -33.15602291 Ry
     estimated scf accuracy    <       3.56910274 Ry

     iteration #  8     ecut=    50.00 Ry     beta= 0.70
     Davidson diagonalization with overlap
     ethr =  1.51E-03,  avg # of iterations =  3.3

     total cpu time spent up to now is       11.9 secs

     total energy              =     -35.39435103 Ry
     estimated scf accuracy    <       5.51564453 Ry

     iteration #  9     ecut=    50.00 Ry     beta= 0.70
     Davidson diagonalization with overlap
     ethr =  1.51E-03,  avg # of iterations =  1.9

     total cpu time spent up to now is       12.0 secs

     total energy              =     -35.44692254 Ry
     estimated scf accuracy    <       6.69291776 Ry

     iteration # 10     ecut=    50.00 Ry     beta= 0.70
     Davidson diagonalization with overlap
     ethr =  1.51E-03,  avg # of iterations =  1.0

     negative rho (up, down):  2.120E-04 0.000E+00

     total cpu time spent up to now is       12.1 secs

     total energy              =     -22.51261370 Ry
     estimated scf accuracy    <       6.72495768 Ry

     iteration # 11     ecut=    50.00 Ry     beta= 0.70
     Davidson diagonalization with overlap
     ethr =  1.51E-03,  avg # of iterations = 11.4

     negative rho (up, down):  3.428E-04 0.000E+00

     total cpu time spent up to now is       12.4 secs

     total energy              =     -22.77396439 Ry
     estimated scf accuracy    <       0.15450682 Ry

     iteration # 12     ecut=    50.00 Ry     beta= 0.70
     Davidson diagonalization with overlap
     ethr =  1.51E-03,  avg # of iterations =  1.4

     negative rho (up, down):  1.126E-03 0.000E+00

     total cpu time spent up to now is       12.5 secs

     total energy              =     -22.75151269 Ry
     estimated scf accuracy    <       0.04288403 Ry

     iteration # 13     ecut=    50.00 Ry     beta= 0.70
     Davidson diagonalization with overlap
     ethr =  5.36E-04,  avg # of iterations =  3.7

     negative rho (up, down):  7.110E-04 0.000E+00

     total cpu time spent up to now is       12.7 secs

     total energy              =     -22.76338827 Ry
     estimated scf accuracy    <       0.01374210 Ry

     iteration # 14     ecut=    50.00 Ry     beta= 0.70
     Davidson diagonalization with overlap
     ethr =  1.72E-04,  avg # of iterations =  2.6

     negative rho (up, down):  1.242E-03 0.000E+00

     total cpu time spent up to now is       12.8 secs

     total energy              =     -22.81546239 Ry
     estimated scf accuracy    <       0.01131000 Ry

     iteration # 15     ecut=    50.00 Ry     beta= 0.70
     Davidson diagonalization with overlap
     ethr =  1.41E-04,  avg # of iterations =  3.8

     negative rho (up, down):  1.172E-03 0.000E+00

     total cpu time spent up to now is       13.0 secs

     total energy              =     -22.84225908 Ry
     estimated scf accuracy    <       0.16695466 Ry

     iteration # 16     ecut=    50.00 Ry     beta= 0.70
     Davidson diagonalization with overlap
     ethr =  1.41E-04,  avg # of iterations =  1.0

     negative rho (up, down):  6.814E-04 0.000E+00

     total cpu time spent up to now is       13.1 secs

     total energy              =     -22.78313127 Ry
     estimated scf accuracy    <       0.19111692 Ry

     iteration # 17     ecut=    50.00 Ry     beta= 0.70
     Davidson diagonalization with overlap
     ethr =  1.41E-04,  avg # of iterations =  2.0

     negative rho (up, down):  1.651E-03 0.000E+00

     total cpu time spent up to now is       13.2 secs

     total energy              =     -22.74820570 Ry
     estimated scf accuracy    <       0.06171061 Ry

     iteration # 18     ecut=    50.00 Ry     beta= 0.70
     Davidson diagonalization with overlap
     ethr =  1.41E-04,  avg # of iterations =  2.9

     negative rho (up, down):  2.954E-03 0.000E+00

     total cpu time spent up to now is       13.4 secs

     total energy              =     -22.76248022 Ry
     estimated scf accuracy    <       0.00434601 Ry

     iteration # 19     ecut=    50.00 Ry     beta= 0.70
     Davidson diagonalization with overlap
     ethr =  5.43E-05,  avg # of iterations =  3.0

     negative rho (up, down):  1.379E-03 0.000E+00

     total cpu time spent up to now is       13.5 secs

     total energy              =     -22.76255707 Ry
     estimated scf accuracy    <       0.00029401 Ry

     iteration # 20     ecut=    50.00 Ry     beta= 0.70
     Davidson diagonalization with overlap
     c_bands:  1 eigenvalues not converged
     ethr =  3.68E-06,  avg # of iterations =  7.8

     negative rho (up, down):  1.807E-04 0.000E+00

     total cpu time spent up to now is       13.7 secs

     total energy              =     -22.76255538 Ry
     estimated scf accuracy    <       0.00003586 Ry

     iteration # 21     ecut=    50.00 Ry     beta= 0.70
     Davidson diagonalization with overlap
     c_bands:  1 eigenvalues not converged
     ethr =  4.48E-07,  avg # of iterations =  7.9

     negative rho (up, down):  3.087E-05 0.000E+00

     total cpu time spent up to now is       13.9 secs

     total energy              =     -22.76255843 Ry
     estimated scf accuracy    <       0.00000153 Ry

     iteration # 22     ecut=    50.00 Ry     beta= 0.70
     Davidson diagonalization with overlap
     ethr =  1.91E-08,  avg # of iterations =  5.6

     total cpu time spent up to now is       14.1 secs

     total energy              =     -22.76255850 Ry
     estimated scf accuracy    <       0.00000012 Ry

     iteration # 23     ecut=    50.00 Ry     beta= 0.70
     Davidson diagonalization with overlap
     ethr =  1.55E-09,  avg # of iterations =  2.5

     total cpu time spent up to now is       14.3 secs

     total energy              =     -22.76255854 Ry
     estimated scf accuracy    <          2.5E-09 Ry

     iteration # 24     ecut=    50.00 Ry     beta= 0.70
     Davidson diagonalization with overlap
     ethr =  3.16E-11,  avg # of iterations =  2.8

     total cpu time spent up to now is       14.4 secs

     total energy              =     -22.76255855 Ry
     estimated scf accuracy    <          3.0E-10 Ry

     iteration # 25     ecut=    50.00 Ry     beta= 0.70
     Davidson diagonalization with overlap
     ethr =  3.78E-12,  avg # of iterations =  2.1

     total cpu time spent up to now is       14.5 secs

     End of self-consistent calculation

          k = 0.0000 0.0000 0.0000 (  3739 PWs)   bands (ev):

   -24.2130 -12.1849  -7.0139  -7.0139  -0.9997  -0.2151   0.5592   0.9186

          k =-0.0000 0.0714 0.0000 (  3743 PWs)   bands (ev):

   -24.1032 -12.0511  -7.4546  -7.2564  -0.8498  -0.0627   0.7124   1.0713

          k =-0.0000 0.1427 0.0000 (  3708 PWs)   bands (ev):

   -23.7744 -11.6512  -8.6222  -7.8637  -0.3999   0.3941   1.1719   1.5291

          k =-0.0000 0.2141 0.0000 (  3706 PWs)   bands (ev):

   -23.2287 -10.9956 -10.2375  -8.6232   0.3497   1.1529   1.9378   2.2897

          k =-0.0000 0.2854 0.0000 (  3694 PWs)   bands (ev):

   -22.4695 -12.0498 -10.0946  -9.3612   1.3971   2.1939   3.0089   3.1924

          k =-0.0000 0.3568 0.0000 (  3710 PWs)   bands (ev):

   -21.5045 -13.9066  -9.9745  -8.9849   1.2158   2.7363   3.6067   4.3274

          k =-0.0000 0.4281 0.0000 (  3730 PWs)   bands (ev):

   -20.3463 -15.6922 -10.4121  -7.7571  -0.6807   4.1462   4.4678   5.2575

          k =-0.0000 0.4995 0.0000 (  3718 PWs)   bands (ev):

   -19.0485 -17.3081 -10.6365  -6.7196  -2.0737   4.1229   6.3063   7.1938

          k = 0.0618 0.1070 0.0000 (  3721 PWs)   bands (ev):

   -23.8839 -11.7840  -8.1981  -7.7411  -0.5498   0.2419   1.0187   1.3766

          k = 0.0618 0.1784 0.0000 (  3711 PWs)   bands (ev):

   -23.4466 -11.2557  -9.5001  -8.5220   0.0504   0.8501   1.6316   1.9862

          k = 0.0618 0.2497 0.0000 (  3697 PWs)   bands (ev):

   -22.7942 -11.1530 -10.4763  -9.3281   0.9496   1.7573   2.5507   2.8947

          k = 0.0618 0.3211 0.0000 (  3704 PWs)   bands (ev):

   -21.9323 -12.9545 -10.0337  -9.4669   2.1253   2.1448   3.0109   3.7742

          k = 0.0618 0.3924 0.0000 (  3719 PWs)   bands (ev):

   -20.8700 -14.7625 -10.5701  -8.2810   0.1957   3.6264   4.4972   4.8042

          k = 0.0618 0.4638 0.0000 (  3724 PWs)   bands (ev):

   -19.6293 -16.4685 -10.9070  -7.0775  -1.5068   4.6348   5.4379   6.2867

          k = 0.0618 0.5352 0.0000 (  3716 PWs)   bands (ev):

   -18.5408 -17.7109 -11.0211  -6.4366  -2.3204   4.5981   7.3845   7.5382

          k = 0.1236 0.2141 0.0000 (  3703 PWs)   bands (ev):

   -22.9027 -10.6341 -10.6041  -9.5573   0.8007   1.6083   2.3981   2.7468

          k = 0.1236 0.2854 0.0000 (  3715 PWs)   bands (ev):

   -22.1476 -12.0942 -10.5210  -9.7110   1.8487   2.6304   2.7975   3.4705

          k = 0.1236 0.3568 0.0000 (  3713 PWs)   bands (ev):

   -21.1880 -13.7665 -11.2269  -8.6088   0.9366   3.1902   4.0231   4.8472

          k = 0.1236 0.4281 0.0000 (  3709 PWs)   bands (ev):

   -20.0386 -15.4652 -11.6916  -7.3803  -0.8307   4.8141   5.6485   6.0303

          k = 0.1236 0.4995 0.0000 (  3719 PWs)   bands (ev):

   -18.7584 -17.0348 -11.9285  -6.3219  -2.1815   5.9148   6.7338   7.4520

          k = 0.1854 0.3211 0.0000 (  3727 PWs)   bands (ev):

   -21.2950 -13.1288 -11.7814  -8.7216   1.2466   3.0427   3.8568   4.6958

          k = 0.1854 0.3924 0.0000 (  3712 PWs)   bands (ev):

   -20.2470 -14.4768 -12.6372  -7.5488  -0.3487   4.5242   5.3063   6.2245

          k = 0.1854 0.4638 0.0000 (  3698 PWs)   bands (ev):

   -19.0315 -15.9952 -13.0700  -6.3255  -1.8519   6.2739   6.8366   7.7598

          k = 0.1854 0.5352 0.0000 (  3696 PWs)   bands (ev):

   -17.9857 -17.1568 -13.2039  -5.6229  -2.6551   7.5333   7.6929   8.1501

          k = 0.2472 0.4281 0.0000 (  3703 PWs)   bands (ev):

   -19.1296 -15.2521 -13.8615  -6.3431  -1.6808   6.1286   6.5861   7.8607

          k = 0.2472 0.4995 0.0000 (  3695 PWs)   bands (ev):

   -17.9064 -16.3755 -14.4247  -5.1800  -2.9038   6.9464   7.9416   9.3891

          k = 0.3090 0.5352 0.0000 (  3699 PWs)   bands (ev):

   -16.8836 -16.8836 -15.1580  -4.0170  -4.0170   6.7209   9.3865   9.3865

     the Fermi energy is    -4.0170 ev

!    total energy              =     -22.76255855 Ry
     estimated scf accuracy    <          1.5E-11 Ry
     smearing contrib. (-TS)   =      -0.00005015 Ry
     internal energy E=F+TS    =     -22.76250840 Ry

     The total energy is F=E-TS. E is the sum of the following terms:
     one-electron contribution =    -407.31736849 Ry
     hartree contribution      =     204.33160709 Ry
     xc contribution           =      -7.12066574 Ry
     ewald contribution        =     187.34391875 Ry

     convergence has been achieved in  25 iterations

     Forces acting on atoms (cartesian axes, Ry/au):

     atom    1 type  1   force =     0.00000000    0.00000000    0.00000000
     atom    2 type  1   force =     0.00000000    0.00000000    0.00000000

     Total force =     0.000000     Total SCF correction =     0.000000


     Computing stress (Cartesian axis) and pressure

          total   stress  (Ry/bohr**3)                   (kbar)     P=        7.95
   0.00015293  -0.00000000   0.00000000           22.50       -0.00        0.00
   0.00000000   0.00015293   0.00000000            0.00       22.50        0.00
   0.00000000   0.00000000  -0.00014365            0.00        0.00      -21.13

     Energy error            =      1.8E-02
     Gradient error          =      0.0E+00
     Cell gradient error     =      1.5E-04


     number of scf cycles    =   3
     number of bfgs steps    =   2

     enthalpy old            =     -22.7442158898 Ry
     enthalpy new            =     -22.7625585457 Ry

     CASE: enthalpy_new < enthalpy_old

     new trust radius        =       0.0445993598 bohr
     new conv_thr            =            1.0E-10 Ry

     new unit-cell volume =    735.60857 a.u.^3 (   109.00594 Ang^3 )
     density =      0.36593 g/cm^3

CELL_PARAMETERS (alat=  4.21000000)
   1.087798531   0.000000000   0.000000000
  -0.543899266   0.942061162   0.000000000
   0.000000000   0.000000000   9.619952494

ATOMIC_POSITIONS (crystal)
C             0.3333333333        0.6666666667        0.5000000000
C             0.6666666667        0.3333333333        0.5000000000



     Writing output data file ./work/LiC421.save/
     NEW-OLD atomic charge density approx. for the potential

     negative rho (up, down):  1.397E-05 0.000E+00
     extrapolated charge    8.13078, renormalised to    8.00000

     total cpu time spent up to now is       14.6 secs

     Self-consistent Calculation

     iteration #  1     ecut=    50.00 Ry     beta= 0.70
     Davidson diagonalization with overlap
     c_bands:  1 eigenvalues not converged
     c_bands:  1 eigenvalues not converged
     c_bands:  1 eigenvalues not converged
     ethr =  1.00E-06,  avg # of iterations = 13.9

     total cpu time spent up to now is       15.0 secs

     total energy              =      57.74245523 Ry
     estimated scf accuracy    <      46.44281787 Ry

     iteration #  2     ecut=    50.00 Ry     beta= 0.70
     Davidson diagonalization with overlap
     c_bands:  3 eigenvalues not converged
     c_bands:  1 eigenvalues not converged
     c_bands:  1 eigenvalues not converged
     c_bands:  1 eigenvalues not converged
     c_bands:  2 eigenvalues not converged
     c_bands:  2 eigenvalues not converged
     c_bands:  1 eigenvalues not converged
     c_bands:  2 eigenvalues not converged
     ethr =  1.00E-02,  avg # of iterations = 17.3

     total cpu time spent up to now is       15.5 secs

     total energy              =     -37.40789317 Ry
     estimated scf accuracy    <      24.48074245 Ry

     iteration #  3     ecut=    50.00 Ry     beta= 0.70
     Davidson diagonalization with overlap
     ethr =  1.00E-02,  avg # of iterations =  2.6

     total cpu time spent up to now is       15.6 secs

     total energy              =     -28.08719491 Ry
     estimated scf accuracy    <       8.31690769 Ry

     iteration #  4     ecut=    50.00 Ry     beta= 0.70
     Davidson diagonalization with overlap
     ethr =  1.00E-02,  avg # of iterations =  2.7

     total cpu time spent up to now is       15.7 secs

     total energy              =     -25.58450003 Ry
     estimated scf accuracy    <       3.01661103 Ry

     iteration #  5     ecut=    50.00 Ry     beta= 0.70
     Davidson diagonalization with overlap
     ethr =  1.00E-02,  avg # of iterations =  1.4

     total cpu time spent up to now is       15.8 secs

     total energy              =     -23.73513912 Ry
     estimated scf accuracy    <       1.60902859 Ry

     iteration #  6     ecut=    50.00 Ry     beta= 0.70
     Davidson diagonalization with overlap
     ethr =  1.00E-02,  avg # of iterations =  2.0

     total cpu time spent up to now is       16.0 secs

     total energy              =     -23.76040234 Ry
     estimated scf accuracy    <       0.57295807 Ry

     iteration #  7     ecut=    50.00 Ry     beta= 0.70
     Davidson diagonalization with overlap
     ethr =  7.16E-03,  avg # of iterations =  1.2

     total cpu time spent up to now is       16.1 secs

     total energy              =     -23.45838738 Ry
     estimated scf accuracy    <       0.57733054 Ry

     iteration #  8     ecut=    50.00 Ry     beta= 0.70
     Davidson diagonalization with overlap
     ethr =  7.16E-03,  avg # of iterations =  1.6

     total cpu time spent up to now is       16.2 secs

     total energy              =     -24.63156818 Ry
     estimated scf accuracy    <       0.40168965 Ry

     iteration #  9     ecut=    50.00 Ry     beta= 0.70
     Davidson diagonalization with overlap
     ethr =  5.02E-03,  avg # of iterations =  1.6

     total cpu time spent up to now is       16.3 secs

     total energy              =     -24.09209267 Ry
     estimated scf accuracy    <       1.05745219 Ry

     iteration # 10     ecut=    50.00 Ry     beta= 0.70
     Davidson diagonalization with overlap
     ethr =  5.02E-03,  avg # of iterations =  1.4

     total cpu time spent up to now is       16.4 secs

     total energy              =     -22.71088824 Ry
     estimated scf accuracy    <       0.76095793 Ry

     iteration # 11     ecut=    50.00 Ry     beta= 0.70
     Davidson diagonalization with overlap
     ethr =  5.02E-03,  avg # of iterations =  6.1

     negative rho (up, down):  5.582E-04 0.000E+00

     total cpu time spent up to now is       16.6 secs

     total energy              =     -22.76608438 Ry
     estimated scf accuracy    <       0.00722365 Ry

     iteration # 12     ecut=    50.00 Ry     beta= 0.70
     Davidson diagonalization with overlap
     ethr =  9.03E-05,  avg # of iterations =  9.4

     negative rho (up, down):  4.248E-08 0.000E+00

     total cpu time spent up to now is       16.8 secs

     total energy              =     -22.76470405 Ry
     estimated scf accuracy    <       0.00771620 Ry

     iteration # 13     ecut=    50.00 Ry     beta= 0.70
     Davidson diagonalization with overlap
     ethr =  9.03E-05,  avg # of iterations =  1.2

     negative rho (up, down):  2.168E-03 0.000E+00

     total cpu time spent up to now is       16.9 secs

     total energy              =     -22.76291488 Ry
     estimated scf accuracy    <       0.00330799 Ry

     iteration # 14     ecut=    50.00 Ry     beta= 0.70
     Davidson diagonalization with overlap
     ethr =  4.13E-05,  avg # of iterations =  3.4

     negative rho (up, down):  4.668E-04 0.000E+00

     total cpu time spent up to now is       17.1 secs

     total energy              =     -22.76343214 Ry
     estimated scf accuracy    <       0.00113186 Ry

     iteration # 15     ecut=    50.00 Ry     beta= 0.70
     Davidson diagonalization with overlap
     c_bands:  1 eigenvalues not converged
     ethr =  1.41E-05,  avg # of iterations =  6.0

     negative rho (up, down):  6.328E-08 0.000E+00

     total cpu time spent up to now is       17.3 secs

     total energy              =     -22.76376929 Ry
     estimated scf accuracy    <       0.00013740 Ry

     iteration # 16     ecut=    50.00 Ry     beta= 0.70
     Davidson diagonalization with overlap
     c_bands:  1 eigenvalues not converged
     ethr =  1.72E-06,  avg # of iterations =  7.2

     negative rho (up, down):  1.940E-05 0.000E+00

     total cpu time spent up to now is       17.5 secs

     total energy              =     -22.76352700 Ry
     estimated scf accuracy    <       0.00049870 Ry

     iteration # 17     ecut=    50.00 Ry     beta= 0.70
     Davidson diagonalization with overlap
     c_bands:  1 eigenvalues not converged
     c_bands:  2 eigenvalues not converged
     c_bands:  1 eigenvalues not converged
     ethr =  1.72E-06,  avg # of iterations =  6.9

     total cpu time spent up to now is       17.7 secs

     total energy              =     -22.76359928 Ry
     estimated scf accuracy    <       0.00001142 Ry

     iteration # 18     ecut=    50.00 Ry     beta= 0.70
     Davidson diagonalization with overlap
     ethr =  1.43E-07,  avg # of iterations =  3.8

     negative rho (up, down):  8.080E-06 0.000E+00

     total cpu time spent up to now is       17.8 secs

     total energy              =     -22.76357413 Ry
     estimated scf accuracy    <       0.00004451 Ry

     iteration # 19     ecut=    50.00 Ry     beta= 0.70
     Davidson diagonalization with overlap
     ethr =  1.43E-07,  avg # of iterations =  2.1

     total cpu time spent up to now is       18.0 secs

     total energy              =     -22.76358195 Ry
     estimated scf accuracy    <       0.00000022 Ry

     iteration # 20     ecut=    50.00 Ry     beta= 0.70
     Davidson diagonalization with overlap
     ethr =  2.72E-09,  avg # of iterations =  2.1

     total cpu time spent up to now is       18.1 secs

     total energy              =     -22.76358198 Ry
     estimated scf accuracy    <       0.00000001 Ry

     iteration # 21     ecut=    50.00 Ry     beta= 0.70
     Davidson diagonalization with overlap
     ethr =  1.67E-10,  avg # of iterations =  2.4

     total cpu time spent up to now is       18.2 secs

     total energy              =     -22.76358199 Ry
     estimated scf accuracy    <          2.1E-09 Ry

     iteration # 22     ecut=    50.00 Ry     beta= 0.70
     Davidson diagonalization with overlap
     ethr =  2.61E-11,  avg # of iterations =  2.3

     total cpu time spent up to now is       18.3 secs

     End of self-consistent calculation

          k = 0.0000 0.0000 0.0000 (  3739 PWs)   bands (ev):

   -24.0891 -12.0869  -7.0957  -7.0957  -0.9951  -0.2140   0.5614   0.9205

          k =-0.0000 0.0708 0.0000 (  3743 PWs)   bands (ev):

   -23.9807 -11.9557  -7.5324  -7.3320  -0.8476  -0.0642   0.7121   1.0706

          k =-0.0000 0.1415 0.0000 (  3708 PWs)   bands (ev):

   -23.6564 -11.5637  -8.6882  -7.9244  -0.4049   0.3849   1.1641   1.5207

          k =-0.0000 0.2123 0.0000 (  3706 PWs)   bands (ev):

   -23.1183 -10.9211 -10.2853  -8.6664   0.3326   1.1308   1.9175   2.2684

          k =-0.0000 0.2831 0.0000 (  3694 PWs)   bands (ev):

   -22.3697 -12.0756 -10.0384  -9.3884   1.3630   2.1499   2.9709   3.0175

          k =-0.0000 0.3538 0.0000 (  3710 PWs)   bands (ev):

   -21.4186 -13.9083  -9.9890  -8.9520   1.0405   2.6795   3.5412   4.0860

          k =-0.0000 0.4246 0.0000 (  3730 PWs)   bands (ev):

   -20.2788 -15.6678 -10.4181  -7.7515  -0.8088   3.8628   4.3407   5.1645

          k =-0.0000 0.4954 0.0000 (  3718 PWs)   bands (ev):

   -19.0123 -17.2481 -10.6382  -6.7397  -2.1652   3.7925   6.1893   7.0658

          k = 0.0613 0.1062 0.0000 (  3721 PWs)   bands (ev):

   -23.7645 -11.6939  -8.2694  -7.8049  -0.5524   0.2353   1.0135   1.3707

          k = 0.0613 0.1769 0.0000 (  3711 PWs)   bands (ev):

   -23.3332 -11.1760  -9.5588  -8.5680   0.0381   0.8332   1.6164   1.9701

          k = 0.0613 0.2477 0.0000 (  3697 PWs)   bands (ev):

   -22.6898 -11.1920 -10.4123  -9.3576   0.9227   1.7247   2.5204   2.8625

          k = 0.0613 0.3185 0.0000 (  3704 PWs)   bands (ev):

   -21.8402 -12.9700 -10.0495  -9.4237   1.9288   2.0983   2.9510   3.7231

          k = 0.0613 0.3892 0.0000 (  3719 PWs)   bands (ev):

   -20.7937 -14.7530 -10.5758  -8.2633   0.0431   3.5534   4.4171   4.4839

          k = 0.0613 0.4600 0.0000 (  3724 PWs)   bands (ev):

   -19.5752 -16.4305 -10.9068  -7.0877  -1.6158   4.3072   5.3307   6.1746

          k = 0.0613 0.5308 0.0000 (  3716 PWs)   bands (ev):

   -18.5346 -17.6226 -11.0190  -6.4638  -2.4072   4.2626   7.2472   7.4031

          k = 0.1226 0.2123 0.0000 (  3703 PWs)   bands (ev):

   -22.7968 -10.6854 -10.5375  -9.5800   0.7761   1.5786   2.3702   2.7179

          k = 0.1226 0.2831 0.0000 (  3715 PWs)   bands (ev):

   -22.0524 -12.1287 -10.5265  -9.6626   1.8070   2.5006   2.6553   3.4250

          k = 0.1226 0.3538 0.0000 (  3713 PWs)   bands (ev):

   -21.1067 -13.7759 -11.2230  -8.5836   0.7592   3.1264   3.9512   4.7787

          k = 0.1226 0.4246 0.0000 (  3709 PWs)   bands (ev):

   -19.9756 -15.4476 -11.6817  -7.3822  -0.9634   4.7218   5.5473   5.6933

          k = 0.1226 0.4954 0.0000 (  3719 PWs)   bands (ev):

   -18.7258 -16.9817 -11.9158  -6.3499  -2.2789   5.5710   6.6072   7.3125

          k = 0.1839 0.3185 0.0000 (  3727 PWs)   bands (ev):

   -21.2121 -13.1606 -11.7585  -8.6939   1.0571   2.9814   3.7881   4.6301

          k = 0.1839 0.3892 0.0000 (  3712 PWs)   bands (ev):

   -20.1800 -14.4875 -12.6039  -7.5463  -0.5006   4.4382   5.2110   6.1333

          k = 0.1839 0.4600 0.0000 (  3698 PWs)   bands (ev):

   -18.9862 -15.9743 -13.0361  -6.3508  -1.9670   6.1572   6.7083   7.4081

          k = 0.1839 0.5308 0.0000 (  3696 PWs)   bands (ev):

   -17.9827 -17.0901 -13.1699  -5.6662  -2.7491   7.3352   7.3870   7.9947

          k = 0.2451 0.4246 0.0000 (  3703 PWs)   bands (ev):

   -19.0811 -15.2678 -13.7938  -6.3672  -1.8050   6.0150   6.4636   7.7753

          k = 0.2451 0.4954 0.0000 (  3695 PWs)   bands (ev):

   -17.8858 -16.3624 -14.3516  -5.2308  -3.0008   6.8217   7.7912   9.0873

          k = 0.3064 0.5308 0.0000 (  3699 PWs)   bands (ev):

   -16.8876 -16.8876 -15.0413  -4.0925  -4.0925   9.1625   9.1625   9.6501

     the Fermi energy is    -4.0925 ev

!    total energy              =     -22.76358199 Ry
     estimated scf accuracy    <          1.0E-10 Ry
     smearing contrib. (-TS)   =      -0.00005015 Ry
     internal energy E=F+TS    =     -22.76353184 Ry

     The total energy is F=E-TS. E is the sum of the following terms:
     one-electron contribution =    -400.55960947 Ry
     hartree contribution      =     200.93473451 Ry
     xc contribution           =      -7.08390739 Ry
     ewald contribution        =     183.94525051 Ry

     convergence has been achieved in  22 iterations

     Forces acting on atoms (cartesian axes, Ry/au):

     atom    1 type  1   force =     0.00000000    0.00000000    0.00000000
     atom    2 type  1   force =    -0.00000000   -0.00000000    0.00000000

     Total force =     0.000000     Total SCF correction =     0.000000


     Computing stress (Cartesian axis) and pressure

          total   stress  (Ry/bohr**3)                   (kbar)     P=       -5.22
   0.00001881  -0.00000000   0.00000000            2.77       -0.00        0.00
  -0.00000000   0.00001881   0.00000000           -0.00        2.77        0.00
   0.00000000   0.00000000  -0.00014398            0.00        0.00      -21.18

     Energy error            =      1.0E-03
     Gradient error          =      1.6E-26
     Cell gradient error     =      1.9E-05


     number of scf cycles    =   4
     number of bfgs steps    =   3

     enthalpy old            =     -22.7625585457 Ry
     enthalpy new            =     -22.7635819890 Ry

     CASE: enthalpy_new < enthalpy_old

     new trust radius        =       0.0063126927 bohr
     new conv_thr            =            1.0E-10 Ry

     new unit-cell volume =    737.32171 a.u.^3 (   109.25980 Ang^3 )
     density =      0.36508 g/cm^3

CELL_PARAMETERS (alat=  4.21000000)
   1.089064462   0.000000000   0.000000000
  -0.544532231   0.943157490   0.000000000
   0.000000000   0.000000000   9.619952494

ATOMIC_POSITIONS (crystal)
C             0.3333333333        0.6666666667        0.5000000000
C             0.6666666667        0.3333333333        0.5000000000



     Writing output data file ./work/LiC421.save/
     NEW-OLD atomic charge density approx. for the potential

     negative rho (up, down):  1.122E-07 0.000E+00
     extrapolated charge    8.01856, renormalised to    8.00000

     total cpu time spent up to now is       18.4 secs

     Self-consistent Calculation

     iteration #  1     ecut=    50.00 Ry     beta= 0.70
     Davidson diagonalization with overlap
     c_bands:  1 eigenvalues not converged
     c_bands:  1 eigenvalues not converged
     c_bands:  1 eigenvalues not converged
     c_bands:  1 eigenvalues not converged
     ethr =  1.00E-06,  avg # of iterations = 13.0

     total cpu time spent up to now is       18.7 secs

     total energy              =     -22.76338130 Ry
     estimated scf accuracy    <       0.00011172 Ry

     iteration #  2     ecut=    50.00 Ry     beta= 0.70
     Davidson diagonalization with overlap
     c_bands:  1 eigenvalues not converged
     c_bands:  1 eigenvalues not converged
     c_bands:  1 eigenvalues not converged
     c_bands:  1 eigenvalues not converged
     c_bands:  1 eigenvalues not converged
     ethr =  1.40E-06,  avg # of iterations = 12.2

     total cpu time spent up to now is       19.0 secs

     total energy              =     -22.76360512 Ry
     estimated scf accuracy    <       0.00010505 Ry

     iteration #  3     ecut=    50.00 Ry     beta= 0.70
     Davidson diagonalization with overlap
     ethr =  1.31E-06,  avg # of iterations =  1.4

     total cpu time spent up to now is       19.1 secs

     total energy              =     -22.76359937 Ry
     estimated scf accuracy    <       0.00002400 Ry

     iteration #  4     ecut=    50.00 Ry     beta= 0.70
     Davidson diagonalization with overlap
     ethr =  3.00E-07,  avg # of iterations =  1.3

     total cpu time spent up to now is       19.2 secs

     total energy              =     -22.76360078 Ry
     estimated scf accuracy    <       0.00000476 Ry

     iteration #  5     ecut=    50.00 Ry     beta= 0.70
     Davidson diagonalization with overlap
     ethr =  5.95E-08,  avg # of iterations =  1.0

     total cpu time spent up to now is       19.3 secs

     total energy              =     -22.76359959 Ry
     estimated scf accuracy    <       0.00000483 Ry

     iteration #  6     ecut=    50.00 Ry     beta= 0.70
     Davidson diagonalization with overlap
     ethr =  5.95E-08,  avg # of iterations =  1.0

     total cpu time spent up to now is       19.4 secs

     total energy              =     -22.76359820 Ry
     estimated scf accuracy    <       0.00000233 Ry

     iteration #  7     ecut=    50.00 Ry     beta= 0.70
     Davidson diagonalization with overlap
     ethr =  2.91E-08,  avg # of iterations =  2.0

     total cpu time spent up to now is       19.6 secs

     total energy              =     -22.76359858 Ry
     estimated scf accuracy    <       0.00000008 Ry

     iteration #  8     ecut=    50.00 Ry     beta= 0.70
     Davidson diagonalization with overlap
     ethr =  1.06E-09,  avg # of iterations =  2.0

     total cpu time spent up to now is       19.7 secs

     total energy              =     -22.76359859 Ry
     estimated scf accuracy    <       0.00000001 Ry

     iteration #  9     ecut=    50.00 Ry     beta= 0.70
     Davidson diagonalization with overlap
     ethr =  1.41E-10,  avg # of iterations =  1.6

     total cpu time spent up to now is       19.8 secs

     total energy              =     -22.76359859 Ry
     estimated scf accuracy    <          2.2E-09 Ry

     iteration # 10     ecut=    50.00 Ry     beta= 0.70
     Davidson diagonalization with overlap
     ethr =  2.73E-11,  avg # of iterations =  1.3

     total cpu time spent up to now is       19.9 secs

     total energy              =     -22.76359859 Ry
     estimated scf accuracy    <          6.0E-10 Ry

     iteration # 11     ecut=    50.00 Ry     beta= 0.70
     Davidson diagonalization with overlap
     ethr =  7.47E-12,  avg # of iterations =  2.0

     total cpu time spent up to now is       20.0 secs

     total energy              =     -22.76359859 Ry
     estimated scf accuracy    <          1.1E-10 Ry

     iteration # 12     ecut=    50.00 Ry     beta= 0.70
     Davidson diagonalization with overlap
     ethr =  1.32E-12,  avg # of iterations =  1.3

     total cpu time spent up to now is       20.1 secs

     End of self-consistent calculation

          k = 0.0000 0.0000 0.0000 (  3739 PWs)   bands (ev):

   -24.0718 -12.0733  -7.1071  -7.1071  -0.9945  -0.2141   0.5609   0.9198

          k =-0.0000 0.0707 0.0000 (  3743 PWs)   bands (ev):

   -23.9636 -11.9424  -7.5433  -7.3426  -0.8473  -0.0647   0.7112   1.0696

          k =-0.0000 0.1414 0.0000 (  3708 PWs)   bands (ev):

   -23.6399 -11.5515  -8.6974  -7.9328  -0.4056   0.3833   1.1622   1.5186

          k =-0.0000 0.2121 0.0000 (  3706 PWs)   bands (ev):

   -23.1029 -10.9108 -10.2920  -8.6725   0.3302   1.1275   1.9137   2.2646

          k =-0.0000 0.2827 0.0000 (  3694 PWs)   bands (ev):

   -22.3558 -12.0792 -10.0307  -9.3922   1.3581   2.1434   2.9646   2.9901

          k =-0.0000 0.3534 0.0000 (  3710 PWs)   bands (ev):

   -21.4067 -13.9086  -9.9910  -8.9474   1.0159   2.6715   3.5319   4.0446

          k =-0.0000 0.4241 0.0000 (  3730 PWs)   bands (ev):

   -20.2695 -15.6644 -10.4190  -7.7508  -0.8268   3.8204   4.3257   5.1513

          k =-0.0000 0.4948 0.0000 (  3718 PWs)   bands (ev):

   -19.0073 -17.2396 -10.6384  -6.7426  -2.1781   3.7463   6.1729   7.0478

          k = 0.0612 0.1060 0.0000 (  3721 PWs)   bands (ev):

   -23.7478 -11.6814  -8.2794  -7.8138  -0.5528   0.2341   1.0119   1.3690

          k = 0.0612 0.1767 0.0000 (  3711 PWs)   bands (ev):

   -23.3174 -11.1650  -9.5670  -8.5745   0.0363   0.8306   1.6133   1.9670

          k = 0.0612 0.2474 0.0000 (  3697 PWs)   bands (ev):

   -22.6752 -11.1974 -10.4035  -9.3617   0.9189   1.7199   2.5152   2.8568

          k = 0.0612 0.3181 0.0000 (  3704 PWs)   bands (ev):

   -21.8273 -12.9722 -10.0517  -9.4178   1.9011   2.0918   2.9426   3.7149

          k = 0.0612 0.3888 0.0000 (  3719 PWs)   bands (ev):

   -20.7831 -14.7517 -10.5766  -8.2609   0.0217   3.5431   4.4057   4.4388

          k = 0.0612 0.4594 0.0000 (  3724 PWs)   bands (ev):

   -19.5678 -16.4252 -10.9067  -7.0892  -1.6311   4.2612   5.3159   6.1588

          k = 0.0612 0.5301 0.0000 (  3716 PWs)   bands (ev):

   -18.5336 -17.6104 -11.0186  -6.4677  -2.4194   4.2157   7.2280   7.3842

          k = 0.1224 0.2121 0.0000 (  3703 PWs)   bands (ev):

   -22.7821 -10.6926 -10.5283  -9.5831   0.7727   1.5742   2.3654   2.7130

          k = 0.1224 0.2827 0.0000 (  3715 PWs)   bands (ev):

   -22.0391 -12.1335 -10.5273  -9.6559   1.8011   2.4747   2.6429   3.4177

          k = 0.1224 0.3534 0.0000 (  3713 PWs)   bands (ev):

   -21.0953 -13.7772 -11.2224  -8.5802   0.7344   3.1175   3.9409   4.7680

          k = 0.1224 0.4241 0.0000 (  3709 PWs)   bands (ev):

   -19.9668 -15.4451 -11.6803  -7.3826  -0.9821   4.7089   5.5330   5.6460

          k = 0.1224 0.4948 0.0000 (  3719 PWs)   bands (ev):

   -18.7214 -16.9743 -11.9140  -6.3539  -2.2926   5.5227   6.5896   7.2929

          k = 0.1836 0.3181 0.0000 (  3727 PWs)   bands (ev):

   -21.2005 -13.1650 -11.7553  -8.6901   1.0305   2.9728   3.7784   4.6200

          k = 0.1836 0.3888 0.0000 (  3712 PWs)   bands (ev):

   -20.1707 -14.4890 -12.5991  -7.5460  -0.5219   4.4261   5.1976   6.1197

          k = 0.1836 0.4594 0.0000 (  3698 PWs)   bands (ev):

   -18.9800 -15.9714 -13.0313  -6.3545  -1.9832   6.1409   6.6904   7.3583

          k = 0.1836 0.5301 0.0000 (  3696 PWs)   bands (ev):

   -17.9822 -17.0809 -13.1651  -5.6723  -2.7623   7.2850   7.3665   7.9727

          k = 0.2449 0.4241 0.0000 (  3703 PWs)   bands (ev):

   -19.0744 -15.2700 -13.7842  -6.3706  -1.8224   5.9991   6.4465   7.7636

          k = 0.2449 0.4948 0.0000 (  3695 PWs)   bands (ev):

   -17.8830 -16.3607 -14.3412  -5.2380  -3.0144   6.8042   7.7702   9.2149

          k = 0.3061 0.5301 0.0000 (  3699 PWs)   bands (ev):

   -16.8882 -16.8882 -15.0250  -4.1031  -4.1031   6.5902   9.1307   9.1307

     the Fermi energy is    -4.1031 ev

!    total energy              =     -22.76359859 Ry
     estimated scf accuracy    <          6.5E-11 Ry
     smearing contrib. (-TS)   =      -0.00005015 Ry
     internal energy E=F+TS    =     -22.76354844 Ry

     The total energy is F=E-TS. E is the sum of the following terms:
     one-electron contribution =    -399.61685330 Ry
     hartree contribution      =     200.46090434 Ry
     xc contribution           =      -7.07876772 Ry
     ewald contribution        =     183.47116825 Ry

     convergence has been achieved in  12 iterations

     Forces acting on atoms (cartesian axes, Ry/au):

     atom    1 type  1   force =     0.00000000    0.00000000    0.00000000
     atom    2 type  1   force =     0.00000000    0.00000000    0.00000000

     Total force =     0.000000     Total SCF correction =     0.000000


     Computing stress (Cartesian axis) and pressure

          total   stress  (Ry/bohr**3)                   (kbar)     P=       -7.00
   0.00000060  -0.00000000  -0.00000000            0.09       -0.00       -0.00
   0.00000000   0.00000060   0.00000000            0.00        0.09        0.00
  -0.00000000   0.00000000  -0.00014395           -0.00        0.00      -21.18

     Energy error            =      1.7E-05
     Gradient error          =      0.0E+00
     Cell gradient error     =      6.0E-07


     number of scf cycles    =   5
     number of bfgs steps    =   4

     enthalpy old            =     -22.7635819890 Ry
     enthalpy new            =     -22.7635985864 Ry

     CASE: enthalpy_new < enthalpy_old

     new trust radius        =       0.0002099060 bohr
     new conv_thr            =            1.0E-10 Ry

     new unit-cell volume =    737.37870 a.u.^3 (   109.26825 Ang^3 )
     density =      0.36505 g/cm^3

CELL_PARAMETERS (alat=  4.21000000)
   1.089106556   0.000000000   0.000000000
  -0.544553278   0.943193945   0.000000000
   0.000000000   0.000000000   9.619952494

ATOMIC_POSITIONS (crystal)
C             0.3333333333        0.6666666667        0.5000000000
C             0.6666666667        0.3333333333        0.5000000000



     Writing output data file ./work/LiC421.save/
     NEW-OLD atomic charge density approx. for the potential
     extrapolated charge    8.00062, renormalised to    8.00000

     total cpu time spent up to now is       20.2 secs

     Self-consistent Calculation

     iteration #  1     ecut=    50.00 Ry     beta= 0.70
     Davidson diagonalization with overlap
     ethr =  1.00E-06,  avg # of iterations =  2.3

     Threshold (ethr) on eigenvalues was too large:
     Diagonalizing with lowered threshold

     Davidson diagonalization with overlap
     ethr =  1.37E-09,  avg # of iterations =  1.4

     total cpu time spent up to now is       20.4 secs

     total energy              =     -22.76359837 Ry
     estimated scf accuracy    <       0.00000012 Ry

     iteration #  2     ecut=    50.00 Ry     beta= 0.70
     Davidson diagonalization with overlap
     ethr =  1.50E-09,  avg # of iterations =  2.9

     total cpu time spent up to now is       20.6 secs

     total energy              =     -22.76359861 Ry
     estimated scf accuracy    <       0.00000011 Ry

     iteration #  3     ecut=    50.00 Ry     beta= 0.70
     Davidson diagonalization with overlap
     ethr =  1.36E-09,  avg # of iterations =  1.0

     total cpu time spent up to now is       20.7 secs

     total energy              =     -22.76359860 Ry
     estimated scf accuracy    <       0.00000002 Ry

     iteration #  4     ecut=    50.00 Ry     beta= 0.70
     Davidson diagonalization with overlap
     ethr =  3.12E-10,  avg # of iterations =  1.9

     total cpu time spent up to now is       20.8 secs

     total energy              =     -22.76359861 Ry
     estimated scf accuracy    <          4.0E-09 Ry

     iteration #  5     ecut=    50.00 Ry     beta= 0.70
     Davidson diagonalization with overlap
     ethr =  4.96E-11,  avg # of iterations =  1.0

     total cpu time spent up to now is       20.9 secs

     total energy              =     -22.76359861 Ry
     estimated scf accuracy    <          3.9E-09 Ry

     iteration #  6     ecut=    50.00 Ry     beta= 0.70
     Davidson diagonalization with overlap
     ethr =  4.91E-11,  avg # of iterations =  1.0

     total cpu time spent up to now is       21.0 secs

     total energy              =     -22.76359861 Ry
     estimated scf accuracy    <          5.4E-09 Ry

     iteration #  7     ecut=    50.00 Ry     beta= 0.70
     Davidson diagonalization with overlap
     ethr =  4.91E-11,  avg # of iterations =  1.0

     total cpu time spent up to now is       21.1 secs

     total energy              =     -22.76359860 Ry
     estimated scf accuracy    <          5.4E-09 Ry

     iteration #  8     ecut=    50.00 Ry     beta= 0.70
     Davidson diagonalization with overlap
     ethr =  4.91E-11,  avg # of iterations =  2.0

     total cpu time spent up to now is       21.2 secs

     End of self-consistent calculation

          k = 0.0000 0.0000 0.0000 (  3739 PWs)   bands (ev):

   -24.0711 -12.0728  -7.1074  -7.1074  -0.9945  -0.2141   0.5609   0.9198

          k =-0.0000 0.0707 0.0000 (  3743 PWs)   bands (ev):

   -23.9630 -11.9420  -7.5436  -7.3428  -0.8473  -0.0647   0.7112   1.0696

          k =-0.0000 0.1414 0.0000 (  3708 PWs)   bands (ev):

   -23.6393 -11.5511  -8.6976  -7.9330  -0.4057   0.3833   1.1621   1.5186

          k =-0.0000 0.2120 0.0000 (  3706 PWs)   bands (ev):

   -23.1023 -10.9104 -10.2922  -8.6726   0.3301   1.1274   1.9136   2.2645

          k =-0.0000 0.2827 0.0000 (  3694 PWs)   bands (ev):

   -22.3553 -12.0792 -10.0304  -9.3923   1.3580   2.1432   2.9644   2.9888

          k =-0.0000 0.3534 0.0000 (  3710 PWs)   bands (ev):

   -21.4062 -13.9085  -9.9910  -8.9473   1.0151   2.6712   3.5316   4.0432

          k =-0.0000 0.4241 0.0000 (  3730 PWs)   bands (ev):

   -20.2691 -15.6642 -10.4189  -7.7507  -0.8274   3.8190   4.3252   5.1508

          k =-0.0000 0.4948 0.0000 (  3718 PWs)   bands (ev):

   -19.0071 -17.2393 -10.6383  -6.7427  -2.1785   3.7448   6.1724   7.0472

          k = 0.0612 0.1060 0.0000 (  3721 PWs)   bands (ev):

   -23.7472 -11.6809  -8.2797  -7.8140  -0.5528   0.2341   1.0118   1.3690

          k = 0.0612 0.1767 0.0000 (  3711 PWs)   bands (ev):

   -23.3168 -11.1646  -9.5672  -8.5746   0.0362   0.8305   1.6132   1.9669

          k = 0.0612 0.2474 0.0000 (  3697 PWs)   bands (ev):

   -22.6747 -11.1975 -10.4031  -9.3617   0.9187   1.7198   2.5150   2.8565

          k = 0.0612 0.3181 0.0000 (  3704 PWs)   bands (ev):

   -21.8269 -12.9722 -10.0517  -9.4175   1.9003   2.0916   2.9423   3.7146

          k = 0.0612 0.3888 0.0000 (  3719 PWs)   bands (ev):

   -20.7827 -14.7516 -10.5765  -8.2608   0.0210   3.5428   4.4053   4.4374

          k = 0.0612 0.4594 0.0000 (  3724 PWs)   bands (ev):

   -19.5675 -16.4249 -10.9067  -7.0892  -1.6316   4.2597   5.3154   6.1583

          k = 0.0612 0.5301 0.0000 (  3716 PWs)   bands (ev):

   -18.5335 -17.6099 -11.0186  -6.4677  -2.4198   4.2142   7.2274   7.3836

          k = 0.1224 0.2120 0.0000 (  3703 PWs)   bands (ev):

   -22.7815 -10.6928 -10.5279  -9.5832   0.7726   1.5740   2.3653   2.7128

          k = 0.1224 0.2827 0.0000 (  3715 PWs)   bands (ev):

   -22.0386 -12.1336 -10.5273  -9.6556   1.8009   2.4738   2.6425   3.4175

          k = 0.1224 0.3534 0.0000 (  3713 PWs)   bands (ev):

   -21.0949 -13.7772 -11.2223  -8.5800   0.7336   3.1172   3.9406   4.7677

          k = 0.1224 0.4241 0.0000 (  3709 PWs)   bands (ev):

   -19.9665 -15.4450 -11.6802  -7.3825  -0.9826   4.7084   5.5325   5.6444

          k = 0.1224 0.4948 0.0000 (  3719 PWs)   bands (ev):

   -18.7212 -16.9740 -11.9138  -6.3540  -2.2930   5.5212   6.5891   7.2922

          k = 0.1836 0.3181 0.0000 (  3727 PWs)   bands (ev):

   -21.2001 -13.1651 -11.7551  -8.6900   1.0297   2.9725   3.7780   4.6197

[...]

          k = 0.1224 0.4948 0.0000 (  3719 PWs)   bands (ev):

   -18.7209 -16.9737 -11.9136  -6.3537  -2.2928   5.5214   6.5892   7.2924

          k = 0.1836 0.3181 0.0000 (  3727 PWs)   bands (ev):

   -21.1998 -13.1648 -11.7548  -8.6897   1.0299   2.9726   3.7781   4.6197

          k = 0.1836 0.3887 0.0000 (  3712 PWs)   bands (ev):

   -20.1700 -14.4887 -12.5987  -7.5457  -0.5223   4.4258   5.1972   6.1192

          k = 0.1836 0.4594 0.0000 (  3698 PWs)   bands (ev):

   -18.9794 -15.9710 -13.0308  -6.3543  -1.9834   6.1405   6.6899   7.3570

          k = 0.1836 0.5301 0.0000 (  3696 PWs)   bands (ev):

   -17.9819 -17.0803 -13.1646  -5.6722  -2.7625   7.2836   7.3660   7.9722

          k = 0.2448 0.4241 0.0000 (  3703 PWs)   bands (ev):

   -19.0739 -15.2698 -13.7836  -6.3704  -1.8227   5.9987   6.4461   7.7630

          k = 0.2448 0.4948 0.0000 (  3695 PWs)   bands (ev):

   -17.8826 -16.3603 -14.3405  -5.2379  -3.0146   6.8039   7.7696   9.2139

          k = 0.3061 0.5301 0.0000 (  3699 PWs)   bands (ev):

   -16.8879 -16.8879 -15.0242  -4.1031  -4.1031   6.5899   9.1298   9.1298

     the Fermi energy is    -4.1031 ev

!    total energy              =     -22.76359860 Ry
     estimated scf accuracy    <          1.6E-11 Ry
     smearing contrib. (-TS)   =      -0.00005015 Ry
     internal energy E=F+TS    =     -22.76354845 Ry

     The total energy is F=E-TS. E is the sum of the following terms:
     one-electron contribution =    -399.58537128 Ry
     hartree contribution      =     200.44505121 Ry
     xc contribution           =      -7.07859056 Ry
     ewald contribution        =     183.45536218 Ry

     convergence has been achieved in   1 iterations

     Forces acting on atoms (cartesian axes, Ry/au):

     atom    1 type  1   force =     0.00000000    0.00000000    0.00000000
     atom    2 type  1   force =    -0.00000000   -0.00000000    0.00000000

     Total force =     0.000000     Total SCF correction =     0.000000


     Computing stress (Cartesian axis) and pressure

          total   stress  (Ry/bohr**3)                   (kbar)     P=       -7.06
   0.00000000   0.00000000  -0.00000000            0.00        0.00       -0.00
   0.00000000   0.00000000   0.00000000            0.00        0.00        0.00
  -0.00000000   0.00000000  -0.00014401           -0.00        0.00      -21.18

     Energy error            =      1.0E-11
     Gradient error          =      1.6E-26
     Cell gradient error     =      4.0E-09


     bfgs converged in   7 scf cycles and   6 bfgs steps
     (criteria: energy <  1.0E-04 Ry, force <  1.0E-08Ry/Bohr, cell <  1.0E-03kbar)

     End of BFGS Geometry Optimization

     Final enthalpy =     -22.7635986038 Ry

     File ./work/LiC421.bfgs deleted, as requested
Begin final coordinates
     new unit-cell volume =    737.37896 a.u.^3 (   109.26829 Ang^3 )
     density =      0.36505 g/cm^3

CELL_PARAMETERS (alat=  4.21000000)
   1.089106747   0.000000000   0.000000000
  -0.544553373   0.943194110   0.000000000
   0.000000000   0.000000000   9.619952494

ATOMIC_POSITIONS (crystal)
C             0.3333333333        0.6666666667        0.5000000000
C             0.6666666667        0.3333333333        0.5000000000
End final coordinates



     Writing output data file ./work/LiC421.save/

     Final scf calculation at the relaxed structure.
     The G-vectors are recalculated for the final unit cell
     Results may differ from those at the preceding step.
 
     Parallelization info
     --------------------
     sticks:   dense  smooth     PW     G-vecs:    dense   smooth      PW
     Min           9       9      2                 1095     1095     170
     Max          10      10      3                 1114     1114     213
     Sum         295     295     91                35277    35277    6313
 


     bravais-lattice index     =            4
     lattice parameter (alat)  =       4.2100  a.u.
     unit-cell volume          =     737.3790 (a.u.)^3
     number of atoms/cell      =            2
     number of atomic types    =            1
     number of electrons       =         8.00
     number of Kohn-Sham states=            8
     kinetic-energy cutoff     =      50.0000  Ry
     charge density cutoff     =     200.0000  Ry
     scf convergence threshold =      1.0E-10
     mixing beta               =       0.7000
     number of iterations used =            8  plain     mixing
     press convergence thresh. =      1.0E-03
     Exchange-correlation= PBE
                           (   1   4   3   4   0   0   0)

     celldm(1)=   4.210000  celldm(2)=   0.000000  celldm(3)=   9.619952
     celldm(4)=   0.000000  celldm(5)=   0.000000  celldm(6)=   0.000000

     crystal axes: (cart. coord. in units of alat)
               a(1) = (   1.089107   0.000000   0.000000 )  
               a(2) = (  -0.544553   0.943194   0.000000 )  
               a(3) = (   0.000000   0.000000   9.619952 )  

     reciprocal axes: (cart. coord. in units 2 pi/alat)
               b(1) = (  0.918184  0.530114  0.000000 )  
               b(2) = ( -0.000000  1.060227  0.000000 )  
               b(3) = (  0.000000  0.000000  0.103951 )  


     PseudoPot. # 1 for C  read from file:
     /home/yhkim/qe-6.7/pseudo/ONCV1/1.2/C_ONCV_PBE-1.2.upf
     MD5 check sum: 1a5f83a7b1f58d24996abe00ed223ac6
     Pseudo is Norm-conserving, Zval =  4.0
     Generated using ONCVPSP code by D. R. Hamann
     Using radial grid of  602 points,  4 beta functions with: 
                l(1) =   0
                l(2) =   0
                l(3) =   1
                l(4) =   1

     atomic species   valence    mass     pseudopotential
        C              4.00    12.01070     C ( 1.00)

     24 Sym. Ops., with inversion, found



   Cartesian axes

     site n.     atom                  positions (alat units)
         1           C   tau(   1) = (  -0.0000000   0.6287961   4.8099762  )
         2           C   tau(   2) = (   0.5445534   0.3143980   4.8099762  )

     number of k points=    27  Methfessel-Paxton smearing, width (Ry)=  0.0100
                       cart. coord. in units 2pi/alat
        k(    1) = (   0.0000000   0.0000000   0.0000000), wk =   0.0088889
        k(    2) = (  -0.0000000   0.0706818   0.0000000), wk =   0.0533333
        k(    3) = (  -0.0000000   0.1413636   0.0000000), wk =   0.0533333
        k(    4) = (  -0.0000000   0.2120454   0.0000000), wk =   0.0533333
        k(    5) = (  -0.0000000   0.2827272   0.0000000), wk =   0.0533333
        k(    6) = (  -0.0000000   0.3534090   0.0000000), wk =   0.0533333
        k(    7) = (  -0.0000000   0.4240909   0.0000000), wk =   0.0533333
        k(    8) = (  -0.0000000   0.4947727   0.0000000), wk =   0.0533333
        k(    9) = (   0.0612122   0.1060227   0.0000000), wk =   0.0533333
        k(   10) = (   0.0612122   0.1767045   0.0000000), wk =   0.1066667
        k(   11) = (   0.0612122   0.2473863   0.0000000), wk =   0.1066667
        k(   12) = (   0.0612122   0.3180681   0.0000000), wk =   0.1066667
        k(   13) = (   0.0612122   0.3887500   0.0000000), wk =   0.1066667
        k(   14) = (   0.0612122   0.4594318   0.0000000), wk =   0.1066667
        k(   15) = (   0.0612122   0.5301136   0.0000000), wk =   0.0533333
        k(   16) = (   0.1224245   0.2120454   0.0000000), wk =   0.0533333
        k(   17) = (   0.1224245   0.2827272   0.0000000), wk =   0.1066667
        k(   18) = (   0.1224245   0.3534090   0.0000000), wk =   0.1066667
        k(   19) = (   0.1224245   0.4240909   0.0000000), wk =   0.1066667
        k(   20) = (   0.1224245   0.4947727   0.0000000), wk =   0.1066667
        k(   21) = (   0.1836367   0.3180681   0.0000000), wk =   0.0533333
        k(   22) = (   0.1836367   0.3887500   0.0000000), wk =   0.1066667
        k(   23) = (   0.1836367   0.4594318   0.0000000), wk =   0.1066667
        k(   24) = (   0.1836367   0.5301136   0.0000000), wk =   0.0533333
        k(   25) = (   0.2448490   0.4240909   0.0000000), wk =   0.0533333
        k(   26) = (   0.2448490   0.4947727   0.0000000), wk =   0.1066667
        k(   27) = (   0.3060612   0.5301136   0.0000000), wk =   0.0177778

     Dense  grid:    35277 G-vectors     FFT dimensions: (  24,  24, 192)

     Estimated max dynamical RAM per process >       1.93 MB

     Estimated total dynamical RAM >      61.87 MB
 ----2D----2D----2D----2D----2D----2D----2D----2D----2D----2D----2D----2D
  The code is running with the 2D cutoff
  Please refer to:
  Sohier, T., Calandra, M., & Mauri, F. (2017), 
  Density functional perturbation theory for gated two-dimensional heterostructu
 res:
  Theoretical developments and application to flexural phonons in graphene.
  Physical Review B, 96(7), 75448. https://doi.org/10.1103/PhysRevB.96.075448
 ----2D----2D----2D----2D----2D----2D----2D----2D----2D----2D----2D----2D

     Initial potential from superposition of free atoms

     starting charge    7.98607, renormalised to    8.00000

     negative rho (up, down):  1.113E-04 0.000E+00
     Starting wfcs are random

     total cpu time spent up to now is       21.7 secs

     Self-consistent Calculation

     iteration #  1     ecut=    50.00 Ry     beta= 0.70
     Davidson diagonalization with overlap
     c_bands:  1 eigenvalues not converged
     c_bands:  2 eigenvalues not converged
     c_bands:  3 eigenvalues not converged
     c_bands:  5 eigenvalues not converged
     c_bands:  5 eigenvalues not converged
     c_bands:  4 eigenvalues not converged
     c_bands:  3 eigenvalues not converged
     c_bands:  2 eigenvalues not converged
     c_bands:  3 eigenvalues not converged
     c_bands:  5 eigenvalues not converged
     c_bands:  5 eigenvalues not converged
     c_bands:  4 eigenvalues not converged
     c_bands:  3 eigenvalues not converged
     c_bands:  3 eigenvalues not converged
     c_bands:  2 eigenvalues not converged
     c_bands:  5 eigenvalues not converged
     c_bands:  4 eigenvalues not converged
     c_bands:  4 eigenvalues not converged
     c_bands:  3 eigenvalues not converged
     c_bands:  3 eigenvalues not converged
     c_bands:  4 eigenvalues not converged
     c_bands:  4 eigenvalues not converged
     c_bands:  3 eigenvalues not converged
     c_bands:  3 eigenvalues not converged
     c_bands:  3 eigenvalues not converged
     c_bands:  3 eigenvalues not converged
     c_bands:  3 eigenvalues not converged
     ethr =  1.00E-06,  avg # of iterations = 23.0

     negative rho (up, down):  2.231E-05 0.000E+00

     total cpu time spent up to now is       22.5 secs

     total energy              =     -22.75452097 Ry
     estimated scf accuracy    <       0.21773512 Ry

     iteration #  2     ecut=    50.00 Ry     beta= 0.70
     Davidson diagonalization with overlap
     ethr =  2.72E-03,  avg # of iterations =  2.1

     negative rho (up, down):  2.719E-06 0.000E+00

     total cpu time spent up to now is       22.6 secs

     total energy              =     -22.78764732 Ry
     estimated scf accuracy    <       0.00240857 Ry

     iteration #  3     ecut=    50.00 Ry     beta= 0.70
     Davidson diagonalization with overlap
     ethr =  3.01E-05,  avg # of iterations = 10.0

     total cpu time spent up to now is       22.8 secs

     total energy              =     -22.78809105 Ry
     estimated scf accuracy    <       0.00017598 Ry

     iteration #  4     ecut=    50.00 Ry     beta= 0.70
     Davidson diagonalization with overlap
     c_bands:  1 eigenvalues not converged
     ethr =  2.20E-06,  avg # of iterations =  5.3

     total cpu time spent up to now is       22.9 secs

     total energy              =     -22.78810443 Ry
     estimated scf accuracy    <       0.00000135 Ry

     iteration #  5     ecut=    50.00 Ry     beta= 0.70
     Davidson diagonalization with overlap
     c_bands:  1 eigenvalues not converged
     ethr =  1.68E-08,  avg # of iterations =  4.4

     total cpu time spent up to now is       23.1 secs

     total energy              =     -22.78810578 Ry
     estimated scf accuracy    <       0.00000004 Ry

     iteration #  6     ecut=    50.00 Ry     beta= 0.70
     Davidson diagonalization with overlap
     ethr =  4.41E-10,  avg # of iterations =  2.6

     total cpu time spent up to now is       23.2 secs

     total energy              =     -22.78810580 Ry
     estimated scf accuracy    <          7.4E-10 Ry

     iteration #  7     ecut=    50.00 Ry     beta= 0.70
     Davidson diagonalization with overlap
     ethr =  9.24E-12,  avg # of iterations =  3.0

     total cpu time spent up to now is       23.3 secs

     End of self-consistent calculation

          k = 0.0000 0.0000 0.0000 (  4375 PWs)   bands (ev):

   -24.0388 -12.0614  -7.1642  -7.1642  -0.9895  -0.2045   0.5811   0.9364

          k =-0.0000 0.0707 0.0000 (  4381 PWs)   bands (ev):

   -23.9309 -11.9315  -7.5948  -7.3967  -0.8424  -0.0552   0.7313   1.0862

          k =-0.0000 0.1414 0.0000 (  4351 PWs)   bands (ev):

   -23.6078 -11.5410  -8.7394  -7.9863  -0.4009   0.3927   1.1822   1.5352

          k =-0.0000 0.2120 0.0000 (  4373 PWs)   bands (ev):

   -23.0722 -10.8987 -10.3251  -8.7246   0.3344   1.1368   1.9336   2.2812

          k =-0.0000 0.2827 0.0000 (  4409 PWs)   bands (ev):

   -22.3281 -12.1030 -10.0201  -9.4431   1.3615   2.1513   2.9841   2.9856

          k =-0.0000 0.3534 0.0000 (  4425 PWs)   bands (ev):

   -21.3823 -13.9155 -10.0395  -8.9394   1.0112   2.6733   3.5400   4.0523

          k =-0.0000 0.4241 0.0000 (  4433 PWs)   bands (ev):

   -20.2489 -15.6640 -10.4594  -7.7430  -0.8296   3.8292   4.3310   5.1586

          k =-0.0000 0.4948 0.0000 (  4423 PWs)   bands (ev):

   -18.9897 -17.2402 -10.6753  -6.7368  -2.1772   3.7606   6.1725   7.0534

          k = 0.0612 0.1060 0.0000 (  4353 PWs)   bands (ev):

   -23.7152 -11.6707  -8.3271  -7.8635  -0.5480   0.2435   1.0320   1.3856

          k = 0.0612 0.1767 0.0000 (  4363 PWs)   bands (ev):

   -23.2860 -11.1547  -9.6014  -8.6200   0.0408   0.8397   1.6333   1.9836

          k = 0.0612 0.2474 0.0000 (  4391 PWs)   bands (ev):

   -22.6463 -11.2233 -10.3930  -9.4105   0.9227   1.7287   2.5350   2.8731

          k = 0.0612 0.3181 0.0000 (  4416 PWs)   bands (ev):

   -21.8015 -12.9878 -10.0966  -9.4086   1.8947   2.0945   2.9508   3.7342

          k = 0.0612 0.3887 0.0000 (  4421 PWs)   bands (ev):

   -20.7611 -14.7538 -10.6187  -8.2529   0.0190   3.5436   4.4133   4.4453

          k = 0.0612 0.4594 0.0000 (  4429 PWs)   bands (ev):

   -19.5504 -16.4243 -10.9423  -7.0831  -1.6312   4.2686   5.3174   6.1650

          k = 0.0612 0.5301 0.0000 (  4412 PWs)   bands (ev):

   -18.5108 -17.6200 -11.0521  -6.4621  -2.4169   4.2259   7.2270   7.3800

          k = 0.1224 0.2120 0.0000 (  4383 PWs)   bands (ev):

   -22.7528 -10.7181 -10.5178  -9.6264   0.7766   1.5831   2.3853   2.7298

          k = 0.1224 0.2827 0.0000 (  4398 PWs)   bands (ev):

   -22.0123 -12.1462 -10.5649  -9.6472   1.8043   2.4692   2.6487   3.4374

          k = 0.1224 0.3534 0.0000 (  4413 PWs)   bands (ev):

   -21.0723 -13.7842 -11.2582  -8.5722   0.7306   3.1194   3.9485   4.7871

          k = 0.1224 0.4241 0.0000 (  4425 PWs)   bands (ev):

   -19.9486 -15.4460 -11.7150  -7.3766  -0.9846   4.7081   5.5391   5.6407

          k = 0.1224 0.4948 0.0000 (  4407 PWs)   bands (ev):

   -18.7060 -16.9753 -11.9427  -6.3480  -2.2906   5.5193   6.5883   7.2963

          k = 0.1836 0.3181 0.0000 (  4405 PWs)   bands (ev):

   -21.1766 -13.1669 -11.7900  -8.6812   1.0247   2.9751   3.7860   4.6395

          k = 0.1836 0.3887 0.0000 (  4415 PWs)   bands (ev):

   -20.1517 -14.4886 -12.6317  -7.5397  -0.5257   4.4267   5.2035   6.1385

          k = 0.1836 0.4594 0.0000 (  4412 PWs)   bands (ev):

   -18.9667 -15.9711 -13.0612  -6.3491  -1.9850   6.1377   6.6935   7.3343

          k = 0.1836 0.5301 0.0000 (  4415 PWs)   bands (ev):

   -17.9651 -17.0889 -13.1941  -5.6674  -2.7624   7.2600   7.3689   7.9650

          k = 0.2448 0.4241 0.0000 (  4409 PWs)   bands (ev):

   -19.0607 -15.2634 -13.8183  -6.3643  -1.8255   5.9969   6.4500   7.7458

          k = 0.2448 0.4948 0.0000 (  4394 PWs)   bands (ev):

   -17.8727 -16.3572 -14.3726  -5.2337  -3.0130   6.8092   7.7611   8.9951

          k = 0.3061 0.5301 0.0000 (  4395 PWs)   bands (ev):

   -16.8770 -16.8770 -15.0610  -4.1015  -4.1015   6.5966   9.1015   9.1015

     the Fermi energy is    -4.1015 ev

!    total energy              =     -22.78810580 Ry
     estimated scf accuracy    <          1.1E-11 Ry
     smearing contrib. (-TS)   =      -0.00005015 Ry
     internal energy E=F+TS    =     -22.78805565 Ry

     The total energy is F=E-TS. E is the sum of the following terms:
     one-electron contribution =    -399.63060624 Ry
     hartree contribution      =     200.46718379 Ry
     xc contribution           =      -7.07999565 Ry
     ewald contribution        =     183.45536246 Ry

     convergence has been achieved in   7 iterations

     Forces acting on atoms (cartesian axes, Ry/au):

     atom    1 type  1   force =    -0.00000000   -0.00000000    0.00000000
     atom    2 type  1   force =     0.00000000    0.00000000    0.00000000

     Total force =     0.000000     Total SCF correction =     0.000000


     Computing stress (Cartesian axis) and pressure

          total   stress  (Ry/bohr**3)                   (kbar)     P=        5.56
   0.00011283   0.00000000  -0.00000000           16.60        0.00       -0.00
   0.00000000   0.00011283  -0.00000000            0.00       16.60       -0.00
   0.00000000   0.00000000  -0.00011228            0.00        0.00      -16.52


     Writing output data file ./work/LiC421.save/
 
     init_run     :      0.13s CPU      0.16s WALL (       2 calls)
     electrons    :     21.03s CPU     22.77s WALL (       8 calls)
     update_pot   :      0.06s CPU      0.06s WALL (       6 calls)
     forces       :      0.05s CPU      0.06s WALL (       8 calls)
     stress       :      0.15s CPU      0.16s WALL (       8 calls)

     Called by init_run:
     wfcinit      :      0.10s CPU      0.11s WALL (       2 calls)
     potinit      :      0.02s CPU      0.02s WALL (       2 calls)
     hinit0       :      0.01s CPU      0.01s WALL (       2 calls)

     Called by electrons:
     c_bands      :     18.77s CPU     20.17s WALL (     113 calls)
     sum_band     :      2.02s CPU      2.18s WALL (     113 calls)
     v_of_rho     :      0.18s CPU      0.21s WALL (     119 calls)
     mix_rho      :      0.04s CPU      0.04s WALL (     113 calls)

     Called by c_bands:
     init_us_2    :      0.10s CPU      0.11s WALL (    6588 calls)
     cegterg      :     18.46s CPU     19.80s WALL (    3119 calls)

     Called by *egterg:
     cdiaghg      :      1.68s CPU      1.80s WALL (   18581 calls)
     h_psi        :     15.58s CPU     16.73s WALL (   18861 calls)
     g_psi        :      0.04s CPU      0.04s WALL (   15688 calls)

     Called by h_psi:
     h_psi:calbec :      0.48s CPU      0.51s WALL (   18861 calls)
     vloc_psi     :     14.81s CPU     15.90s WALL (   18861 calls)
     add_vuspsi   :      0.14s CPU      0.16s WALL (   18861 calls)

     General routines
     calbec       :      0.48s CPU      0.52s WALL (   19941 calls)
     fft          :      0.17s CPU      0.18s WALL (    1254 calls)
     ffts         :      0.01s CPU      0.01s WALL (     113 calls)
     fftw         :     15.93s CPU     17.11s WALL (  222702 calls)
 
     Parallel routines
     fft_scatt_xy :      0.83s CPU      0.89s WALL (  224069 calls)
     fft_scatt_yz :      6.69s CPU      7.18s WALL (  224069 calls)
 
     PWSCF        :     21.51s CPU     23.60s WALL

 
   This run was terminated on:  14: 5:36  19Jan2024            

=------------------------------------------------------------------------------=
   JOB DONE.
=------------------------------------------------------------------------------=
