
     Program PWSCF v.6.7MaX starts on 19Jan2024 at 14: 7:13 

     This program is part of the open-source Quantum ESPRESSO suite
     for quantum simulation of materials; please cite
         "P. Giannozzi et al., J. Phys.:Condens. Matter 21 395502 (2009);
         "P. Giannozzi et al., J. Phys.:Condens. Matter 29 465901 (2017);
          URL http://www.quantum-espresso.org", 
     in publications or presentations arising from this work. More details at
     http://www.quantum-espresso.org/quote

     Parallel version (MPI), running on    32 processors

     MPI processes distributed on     1 nodes
     R & G space division:  proc/nbgrp/npool/nimage =      32
     Waiting for input...
     Reading input from standard input

     Current dimensions of program PWSCF are:
     Max number of different atomic species (ntypx) = 10
     Max number of k-points (npk) =  40000
     Max angular momentum in pseudopotentials (lmaxx) =  3
     Message from routine read_pp_mesh:
     mesh size missing, using the one in header

     Subspace diagonalization in iterative solution of the eigenvalue problem:
     a serial algorithm will be used

 
     Parallelization info
     --------------------
     sticks:   dense  smooth     PW     G-vecs:    dense   smooth      PW
     Min           7       7      2                  931      931     162
     Max           8       8      3                  968      968     197
     Sum         253     253     85                30615    30615    5743
 


     bravais-lattice index     =            4
     lattice parameter (alat)  =       4.2600  a.u.
     unit-cell volume          =     636.5094 (a.u.)^3
     number of atoms/cell      =            2
     number of atomic types    =            1
     number of electrons       =         8.00
     number of Kohn-Sham states=            8
     kinetic-energy cutoff     =      50.0000  Ry
     charge density cutoff     =     200.0000  Ry
     scf convergence threshold =      1.0E-08
     mixing beta               =       0.7000
     number of iterations used =            8  plain     mixing
     energy convergence thresh.=      1.0E-04
     force convergence thresh. =      1.0E-08
     press convergence thresh. =      1.0E-03
     Exchange-correlation= PBE
                           (   1   4   3   4   0   0   0)
     nstep                     =           50


     celldm(1)=   4.260000  celldm(2)=   0.000000  celldm(3)=   9.507042
     celldm(4)=   0.000000  celldm(5)=   0.000000  celldm(6)=   0.000000

     crystal axes: (cart. coord. in units of alat)
               a(1) = (   1.000000   0.000000   0.000000 )  
               a(2) = (  -0.500000   0.866025   0.000000 )  
               a(3) = (   0.000000   0.000000   9.507042 )  

     reciprocal axes: (cart. coord. in units 2 pi/alat)
               b(1) = (  1.000000  0.577350  0.000000 )  
               b(2) = (  0.000000  1.154701  0.000000 )  
               b(3) = (  0.000000  0.000000  0.105185 )  


     PseudoPot. # 1 for C  read from file:
     /home/yhkim/qe-6.7/pseudo/ONCV1/1.2/C_ONCV_PBE-1.2.upf
     MD5 check sum: 1a5f83a7b1f58d24996abe00ed223ac6
     Pseudo is Norm-conserving, Zval =  4.0
     Generated using ONCVPSP code by D. R. Hamann
     Using radial grid of  602 points,  4 beta functions with: 
                l(1) =   0
                l(2) =   0
                l(3) =   1
                l(4) =   1

     atomic species   valence    mass     pseudopotential
        C              4.00    12.01070     C ( 1.00)

     24 Sym. Ops., with inversion, found



   Cartesian axes

     site n.     atom                  positions (alat units)
         1           C   tau(   1) = (  -0.0000000   0.5773503   4.7535211  )
         2           C   tau(   2) = (   0.5000000   0.2886751   4.7535211  )

     number of k points=    27  Methfessel-Paxton smearing, width (Ry)=  0.0100
                       cart. coord. in units 2pi/alat
        k(    1) = (   0.0000000   0.0000000   0.0000000), wk =   0.0088889
        k(    2) = (   0.0000000   0.0769800   0.0000000), wk =   0.0533333
        k(    3) = (   0.0000000   0.1539601   0.0000000), wk =   0.0533333
        k(    4) = (   0.0000000   0.2309401   0.0000000), wk =   0.0533333
        k(    5) = (   0.0000000   0.3079201   0.0000000), wk =   0.0533333
        k(    6) = (   0.0000000   0.3849002   0.0000000), wk =   0.0533333
        k(    7) = (   0.0000000   0.4618802   0.0000000), wk =   0.0533333
        k(    8) = (   0.0000000   0.5388603   0.0000000), wk =   0.0533333
        k(    9) = (   0.0666667   0.1154701   0.0000000), wk =   0.0533333
        k(   10) = (   0.0666667   0.1924501   0.0000000), wk =   0.1066667
        k(   11) = (   0.0666667   0.2694301   0.0000000), wk =   0.1066667
        k(   12) = (   0.0666667   0.3464102   0.0000000), wk =   0.1066667
        k(   13) = (   0.0666667   0.4233902   0.0000000), wk =   0.1066667
        k(   14) = (   0.0666667   0.5003702   0.0000000), wk =   0.1066667
        k(   15) = (   0.0666667   0.5773503   0.0000000), wk =   0.0533333
        k(   16) = (   0.1333333   0.2309401   0.0000000), wk =   0.0533333
        k(   17) = (   0.1333333   0.3079201   0.0000000), wk =   0.1066667
        k(   18) = (   0.1333333   0.3849002   0.0000000), wk =   0.1066667
        k(   19) = (   0.1333333   0.4618802   0.0000000), wk =   0.1066667
        k(   20) = (   0.1333333   0.5388603   0.0000000), wk =   0.1066667
        k(   21) = (   0.2000000   0.3464102   0.0000000), wk =   0.0533333
        k(   22) = (   0.2000000   0.4233902   0.0000000), wk =   0.1066667
        k(   23) = (   0.2000000   0.5003702   0.0000000), wk =   0.1066667
        k(   24) = (   0.2000000   0.5773503   0.0000000), wk =   0.0533333
        k(   25) = (   0.2666667   0.4618802   0.0000000), wk =   0.0533333
        k(   26) = (   0.2666667   0.5388603   0.0000000), wk =   0.1066667
        k(   27) = (   0.3333333   0.5773503   0.0000000), wk =   0.0177778

     Dense  grid:    30615 G-vectors     FFT dimensions: (  20,  20, 192)

     Estimated max dynamical RAM per process >       1.72 MB

     Estimated total dynamical RAM >      54.95 MB
 ----2D----2D----2D----2D----2D----2D----2D----2D----2D----2D----2D----2D
  The code is running with the 2D cutoff
  Please refer to:
  Sohier, T., Calandra, M., & Mauri, F. (2017), 
  Density functional perturbation theory for gated two-dimensional heterostructu
 res:
  Theoretical developments and application to flexural phonons in graphene.
  Physical Review B, 96(7), 75448. https://doi.org/10.1103/PhysRevB.96.075448
 ----2D----2D----2D----2D----2D----2D----2D----2D----2D----2D----2D----2D

     Initial potential from superposition of free atoms

     starting charge    7.98607, renormalised to    8.00000

     negative rho (up, down):  1.049E-04 0.000E+00
     Starting wfcs are random

     total cpu time spent up to now is        0.1 secs

     Self-consistent Calculation

     iteration #  1     ecut=    50.00 Ry     beta= 0.70
     Davidson diagonalization with overlap
     ethr =  1.00E-02,  avg # of iterations = 11.6

     negative rho (up, down):  6.119E-08 0.000E+00

     total cpu time spent up to now is        0.6 secs

     total energy              =     -22.64313656 Ry
     estimated scf accuracy    <       0.34419409 Ry

     iteration #  2     ecut=    50.00 Ry     beta= 0.70
     Davidson diagonalization with overlap
     ethr =  4.30E-03,  avg # of iterations =  2.0

     total cpu time spent up to now is        0.7 secs

     total energy              =     -22.69454541 Ry
     estimated scf accuracy    <       0.00251648 Ry

     iteration #  3     ecut=    50.00 Ry     beta= 0.70
     Davidson diagonalization with overlap
     ethr =  3.15E-05,  avg # of iterations = 10.8

     total cpu time spent up to now is        1.0 secs

     total energy              =     -22.69599959 Ry
     estimated scf accuracy    <       0.00016911 Ry

     iteration #  4     ecut=    50.00 Ry     beta= 0.70
     Davidson diagonalization with overlap
     ethr =  2.11E-06,  avg # of iterations =  6.3

     total cpu time spent up to now is        1.1 secs

     total energy              =     -22.69603543 Ry
     estimated scf accuracy    <       0.00000149 Ry

     iteration #  5     ecut=    50.00 Ry     beta= 0.70
     Davidson diagonalization with overlap
     ethr =  1.87E-08,  avg # of iterations =  3.8

     total cpu time spent up to now is        1.3 secs

     total energy              =     -22.69603773 Ry
     estimated scf accuracy    <       0.00000011 Ry

     iteration #  6     ecut=    50.00 Ry     beta= 0.70
     Davidson diagonalization with overlap
     ethr =  1.40E-09,  avg # of iterations =  2.1

     total cpu time spent up to now is        1.4 secs

     End of self-consistent calculation

          k = 0.0000 0.0000 0.0000 (  3823 PWs)   bands (ev):

   -25.1927 -13.0060  -6.2807  -1.0278  -0.2099   0.5627   0.9182   2.2424

          k = 0.0000 0.0770 0.0000 (  3815 PWs)   bands (ev):

   -25.0710 -12.8505  -6.7570  -6.5743  -0.8581  -0.0362   0.7368   1.0922

          k = 0.0000 0.1540 0.0000 (  3789 PWs)   bands (ev):

   -24.7066 -12.3850  -8.0350  -7.3108  -0.3480   0.4845   1.2592   1.6140

          k = 0.0000 0.2309 0.0000 (  3774 PWs)   bands (ev):

   -24.1017 -11.6198  -9.8056  -8.2178   0.5028   1.3502   2.1300   2.4819

          k = 0.0000 0.3079 0.0000 (  3784 PWs)   bands (ev):

   -23.2604 -11.8061 -10.5675  -9.0903   1.6926   2.5515   3.3491   3.6834

          k = 0.0000 0.3849 0.0000 (  3798 PWs)   bands (ev):

   -22.1884 -13.8507  -9.8146  -9.2644   2.6426   3.2175   4.1751   4.9152

          k = 0.0000 0.4619 0.0000 (  3806 PWs)   bands (ev):

   -20.8940 -15.8363 -10.3202  -7.8074   0.3622   5.0670   6.0433   6.7759

          k = 0.0000 0.5389 0.0000 (  3828 PWs)   bands (ev):

   -19.3916 -17.6964 -10.5818  -6.5525  -1.3391   6.8178   7.3445   8.2652

          k = 0.0667 0.1155 0.0000 (  3807 PWs)   bands (ev):

   -24.8280 -12.5400  -7.5659  -7.1602  -0.5180   0.3110   1.0850   1.4401

          k = 0.0667 0.1925 0.0000 (  3772 PWs)   bands (ev):

   -24.3433 -11.9241  -8.9766  -8.0897   0.1632   1.0044   1.7819   2.1352

          k = 0.0667 0.2694 0.0000 (  3777 PWs)   bands (ev):

   -23.6203 -11.0143 -10.8017  -9.0352   1.1845   2.0407   2.8272   3.1742

          k = 0.0667 0.3464 0.0000 (  3788 PWs)   bands (ev):

   -22.6639 -12.7964  -9.8548  -9.8313   2.5430   3.3392   3.9085   4.2204

          k = 0.0667 0.4234 0.0000 (  3813 PWs)   bands (ev):

   -21.4813 -14.7977 -10.4778  -8.4331   1.4444   4.2336   5.1768   5.9592

          k = 0.0667 0.5004 0.0000 (  3811 PWs)   bands (ev):

   -20.0829 -16.7123 -10.8624  -6.9944  -0.6217   6.2382   7.2261   7.4427

          k = 0.0667 0.5774 0.0000 (  3826 PWs)   bands (ev):

   -18.5188 -18.4544 -10.9931  -6.2084  -1.6252   7.3719   8.5394   8.6842

          k = 0.1333 0.2309 0.0000 (  3775 PWs)   bands (ev):

   -23.7407 -11.1634 -10.1763  -9.3220   1.0157   1.8695   2.6535   3.0027

          k = 0.1333 0.3079 0.0000 (  3793 PWs)   bands (ev):

   -22.9028 -11.7854 -10.4180 -10.1189   2.2069   3.0723   3.8735   4.2038

          k = 0.1333 0.3849 0.0000 (  3800 PWs)   bands (ev):

   -21.8363 -13.6657 -11.1950  -8.8243   2.4024   3.7327   4.6363   5.4409

          k = 0.1333 0.4619 0.0000 (  3815 PWs)   bands (ev):

   -20.5508 -15.5725 -11.7115  -7.3681   0.2579   5.5853   6.5012   7.3540

          k = 0.1333 0.5389 0.0000 (  3810 PWs)   bands (ev):

   -19.0631 -17.3887 -11.9705  -6.0874  -1.3912   7.7436   8.6166   8.7975

          k = 0.2000 0.3464 0.0000 (  3781 PWs)   bands (ev):

   -21.9551 -12.8290 -11.9166  -8.9567   2.8262   3.5654   4.4405   5.2675

          k = 0.2000 0.4234 0.0000 (  3794 PWs)   bands (ev):

   -20.7864 -14.3762 -12.8262  -7.5747   0.9136   5.2522   6.1106   7.0083

          k = 0.2000 0.5004 0.0000 (  3808 PWs)   bands (ev):

   -19.4124 -16.1443 -13.2537  -6.1163  -0.9016   7.2516   7.9160   9.0927

          k = 0.2000 0.5774 0.0000 (  3816 PWs)   bands (ev):

   -17.9428 -17.7602 -13.3892  -5.2606  -1.8847   8.7743   9.4413   9.6031

          k = 0.2667 0.4619 0.0000 (  3807 PWs)   bands (ev):

   -19.5292 -15.0771 -14.3544  -6.1459  -0.6469   7.0847   7.6174   8.9089

          k = 0.2667 0.5389 0.0000 (  3824 PWs)   bands (ev):

   -18.0951 -16.4973 -14.8837  -4.7561  -2.0978   7.9985   9.1830  10.6778

          k = 0.3333 0.5774 0.0000 (  3789 PWs)   bands (ev):

   -16.7910 -16.7910 -16.1222  -3.3867  -3.3867   7.6852  11.0942  11.0949

     the Fermi energy is    -3.3443 ev

!    total energy              =     -22.69603776 Ry
     estimated scf accuracy    <          5.7E-09 Ry
     smearing contrib. (-TS)   =      -0.00003668 Ry
     internal energy E=F+TS    =     -22.69600108 Ry

     The total energy is F=E-TS. E is the sum of the following terms:
     one-electron contribution =    -463.86448220 Ry
     hartree contribution      =     232.75828781 Ry
     xc contribution           =      -7.41772802 Ry
     ewald contribution        =     215.82792134 Ry

     convergence has been achieved in   6 iterations

     Forces acting on atoms (cartesian axes, Ry/au):

     atom    1 type  1   force =     0.00000000    0.00000000    0.00000000
     atom    2 type  1   force =     0.00000000    0.00000000    0.00000000

     Total force =     0.000000     Total SCF correction =     0.000000


     Computing stress (Cartesian axis) and pressure

          total   stress  (Ry/bohr**3)                   (kbar)     P=      144.79
   0.00154419   0.00000000   0.00000000          227.16        0.00        0.00
   0.00000000   0.00154419  -0.00000000            0.00      227.16       -0.00
   0.00000000   0.00000000  -0.00013569            0.00        0.00      -19.96


     BFGS Geometry Optimization
     Energy error            =      0.0E+00
     Gradient error          =      0.0E+00
     Cell gradient error     =      1.5E-03


     number of scf cycles    =   1
     number of bfgs steps    =   0

     enthalpy new            =     -22.6960377576 Ry

     new trust radius        =       0.1947928537 bohr
     new conv_thr            =       0.0000000100 Ry

     new unit-cell volume =    686.60261 a.u.^3 (   101.74401 Ang^3 )
     density =      0.39205 g/cm^3

CELL_PARAMETERS (alat=  4.26000000)
   1.038604737   0.000000000   0.000000000
  -0.519302369   0.899458087   0.000000000
   0.000000000   0.000000000   9.507042254

ATOMIC_POSITIONS (crystal)
C             0.3333333333        0.6666666667        0.5000000000
C             0.6666666667        0.3333333333        0.5000000000



     Writing output data file ./work/LiC426.save/
     NEW-OLD atomic charge density approx. for the potential

     negative rho (up, down):  1.033E-04 0.000E+00
     extrapolated charge    8.58265, renormalised to    8.00000

     total cpu time spent up to now is        1.5 secs

     Self-consistent Calculation

     iteration #  1     ecut=    50.00 Ry     beta= 0.70
     Davidson diagonalization with overlap
     c_bands:  1 eigenvalues not converged
     c_bands:  2 eigenvalues not converged
     c_bands:  1 eigenvalues not converged
     c_bands:  2 eigenvalues not converged
     c_bands:  2 eigenvalues not converged
     c_bands:  3 eigenvalues not converged
     c_bands:  4 eigenvalues not converged
     c_bands:  5 eigenvalues not converged
     c_bands:  1 eigenvalues not converged
     c_bands:  2 eigenvalues not converged
     c_bands:  2 eigenvalues not converged
     c_bands:  2 eigenvalues not converged
     c_bands:  5 eigenvalues not converged
     c_bands:  5 eigenvalues not converged
     c_bands:  5 eigenvalues not converged
     c_bands:  2 eigenvalues not converged
     c_bands:  2 eigenvalues not converged
     c_bands:  3 eigenvalues not converged
     c_bands:  4 eigenvalues not converged
     c_bands:  5 eigenvalues not converged
     c_bands:  3 eigenvalues not converged
     c_bands:  4 eigenvalues not converged
     c_bands:  5 eigenvalues not converged
     c_bands:  5 eigenvalues not converged
     c_bands:  5 eigenvalues not converged
     c_bands:  5 eigenvalues not converged
     ethr =  1.00E-06,  avg # of iterations = 20.4

     negative rho (up, down):  7.246E-06 0.000E+00

     total cpu time spent up to now is        2.3 secs

     total energy              =     678.20179897 Ry
     estimated scf accuracy    <     386.54343997 Ry

     iteration #  2     ecut=    50.00 Ry     beta= 0.70
     Davidson diagonalization with overlap
     c_bands:  3 eigenvalues not converged
     c_bands:  1 eigenvalues not converged
     c_bands:  1 eigenvalues not converged
     c_bands:  1 eigenvalues not converged
     c_bands:  2 eigenvalues not converged
     c_bands:  2 eigenvalues not converged
     c_bands:  4 eigenvalues not converged
     c_bands:  2 eigenvalues not converged
     c_bands:  3 eigenvalues not converged
     c_bands:  1 eigenvalues not converged
     c_bands:  3 eigenvalues not converged
     c_bands:  5 eigenvalues not converged
     ethr =  1.00E-02,  avg # of iterations = 39.5

     negative rho (up, down):  2.774E-06 0.000E+00

     total cpu time spent up to now is        3.8 secs

     total energy              =    -151.69353069 Ry
     estimated scf accuracy    <     196.66812799 Ry

     iteration #  3     ecut=    50.00 Ry     beta= 0.70
     Davidson diagonalization with overlap
     ethr =  1.00E-02,  avg # of iterations =  5.7

     negative rho (up, down):  3.273E-07 0.000E+00

     total cpu time spent up to now is        4.0 secs

     total energy              =     -52.44935066 Ry
     estimated scf accuracy    <      67.99188992 Ry

     iteration #  4     ecut=    50.00 Ry     beta= 0.70
     Davidson diagonalization with overlap
     ethr =  1.00E-02,  avg # of iterations =  3.1

     negative rho (up, down):  3.931E-07 0.000E+00

     total cpu time spent up to now is        4.2 secs

     total energy              =     -53.20852104 Ry
     estimated scf accuracy    <      15.89132276 Ry

     iteration #  5     ecut=    50.00 Ry     beta= 0.70
     Davidson diagonalization with overlap
     ethr =  1.00E-02,  avg # of iterations =  1.3

     total cpu time spent up to now is        4.3 secs

     total energy              =     -22.87501542 Ry
     estimated scf accuracy    <      16.12938712 Ry

     iteration #  6     ecut=    50.00 Ry     beta= 0.70
     Davidson diagonalization with overlap
     ethr =  1.00E-02,  avg # of iterations =  3.5

     negative rho (up, down):  8.392E-08 0.000E+00

     total cpu time spent up to now is        4.5 secs

     total energy              =     -35.10322955 Ry
     estimated scf accuracy    <       0.36915749 Ry

     iteration #  7     ecut=    50.00 Ry     beta= 0.70
     Davidson diagonalization with overlap
     ethr =  4.61E-03,  avg # of iterations =  4.8

     negative rho (up, down):  8.775E-08 0.000E+00

     total cpu time spent up to now is        4.6 secs

     total energy              =     -35.84996727 Ry
     estimated scf accuracy    <       6.63661399 Ry

     iteration #  8     ecut=    50.00 Ry     beta= 0.70
     Davidson diagonalization with overlap
     ethr =  4.61E-03,  avg # of iterations =  1.0

     negative rho (up, down):  9.552E-08 0.000E+00

     total cpu time spent up to now is        4.7 secs

     total energy              =     -35.69435895 Ry
     estimated scf accuracy    <       6.90708620 Ry

     iteration #  9     ecut=    50.00 Ry     beta= 0.70
     Davidson diagonalization with overlap
     ethr =  4.61E-03,  avg # of iterations =  1.0

     negative rho (up, down):  1.986E-07 0.000E+00

     total cpu time spent up to now is        4.9 secs

     total energy              =     -28.76853934 Ry
     estimated scf accuracy    <       6.83076967 Ry

     iteration # 10     ecut=    50.00 Ry     beta= 0.70
     Davidson diagonalization with overlap
     ethr =  4.61E-03,  avg # of iterations =  1.3

     negative rho (up, down):  2.187E-03 0.000E+00

     total cpu time spent up to now is        5.0 secs

     total energy              =     -22.55354449 Ry
     estimated scf accuracy    <       3.21328899 Ry

     iteration # 11     ecut=    50.00 Ry     beta= 0.70
     Davidson diagonalization with overlap
     ethr =  4.61E-03,  avg # of iterations =  8.9

     total cpu time spent up to now is        5.2 secs

     total energy              =     -22.75557128 Ry
     estimated scf accuracy    <       0.06958044 Ry

     iteration # 12     ecut=    50.00 Ry     beta= 0.70
     Davidson diagonalization with overlap
     ethr =  8.70E-04,  avg # of iterations =  4.3

     negative rho (up, down):  4.036E-04 0.000E+00

     total cpu time spent up to now is        5.3 secs

     total energy              =     -22.75727936 Ry
     estimated scf accuracy    <       0.02950737 Ry

     iteration # 13     ecut=    50.00 Ry     beta= 0.70
     Davidson diagonalization with overlap
     ethr =  3.69E-04,  avg # of iterations =  1.3

     negative rho (up, down):  9.226E-04 0.000E+00

     total cpu time spent up to now is        5.5 secs

     total energy              =     -22.75335370 Ry
     estimated scf accuracy    <       0.02406036 Ry

     iteration # 14     ecut=    50.00 Ry     beta= 0.70
     Davidson diagonalization with overlap
     ethr =  3.01E-04,  avg # of iterations =  1.1

     negative rho (up, down):  6.038E-04 0.000E+00

     total cpu time spent up to now is        5.6 secs

     total energy              =     -22.76296161 Ry
     estimated scf accuracy    <       0.01341439 Ry

     iteration # 15     ecut=    50.00 Ry     beta= 0.70
     Davidson diagonalization with overlap
     ethr =  1.68E-04,  avg # of iterations =  4.2

     negative rho (up, down):  3.151E-04 0.000E+00

     total cpu time spent up to now is        5.7 secs

     total energy              =     -22.75557797 Ry
     estimated scf accuracy    <       0.04365271 Ry

     iteration # 16     ecut=    50.00 Ry     beta= 0.70
     Davidson diagonalization with overlap
     ethr =  1.68E-04,  avg # of iterations =  3.3

     negative rho (up, down):  9.370E-04 0.000E+00

     total cpu time spent up to now is        5.9 secs

     total energy              =     -22.75590450 Ry
     estimated scf accuracy    <       0.01092427 Ry

     iteration # 17     ecut=    50.00 Ry     beta= 0.70
     Davidson diagonalization with overlap
     ethr =  1.37E-04,  avg # of iterations =  1.0

     negative rho (up, down):  4.527E-04 0.000E+00

     total cpu time spent up to now is        6.0 secs

     total energy              =     -22.75338217 Ry
     estimated scf accuracy    <       0.00915949 Ry

     iteration # 18     ecut=    50.00 Ry     beta= 0.70
     Davidson diagonalization with overlap
     ethr =  1.14E-04,  avg # of iterations =  1.3

     negative rho (up, down):  3.774E-04 0.000E+00

     total cpu time spent up to now is        6.1 secs

     total energy              =     -22.75123185 Ry
     estimated scf accuracy    <       0.00398503 Ry

     iteration # 19     ecut=    50.00 Ry     beta= 0.70
     Davidson diagonalization with overlap
     ethr =  4.98E-05,  avg # of iterations =  4.6

     negative rho (up, down):  3.257E-06 0.000E+00

     total cpu time spent up to now is        6.3 secs

     total energy              =     -22.75184693 Ry
     estimated scf accuracy    <       0.00002789 Ry

     iteration # 20     ecut=    50.00 Ry     beta= 0.70
     Davidson diagonalization with overlap
     c_bands:  1 eigenvalues not converged
     c_bands:  1 eigenvalues not converged
     ethr =  3.49E-07,  avg # of iterations =  9.3

     total cpu time spent up to now is        6.5 secs

     total energy              =     -22.75185997 Ry
     estimated scf accuracy    <       0.00000238 Ry

     iteration # 21     ecut=    50.00 Ry     beta= 0.70
     Davidson diagonalization with overlap
     ethr =  2.98E-08,  avg # of iterations =  3.2

     negative rho (up, down):  1.074E-05 0.000E+00

     total cpu time spent up to now is        6.7 secs

     total energy              =     -22.75186040 Ry
     estimated scf accuracy    <       0.00000091 Ry

     iteration # 22     ecut=    50.00 Ry     beta= 0.70
     Davidson diagonalization with overlap
     ethr =  1.14E-08,  avg # of iterations =  2.6

     total cpu time spent up to now is        6.8 secs

     total energy              =     -22.75186038 Ry
     estimated scf accuracy    <       0.00000001 Ry

     iteration # 23     ecut=    50.00 Ry     beta= 0.70
     Davidson diagonalization with overlap
     ethr =  1.76E-10,  avg # of iterations =  3.1

     total cpu time spent up to now is        6.9 secs

     End of self-consistent calculation

          k = 0.0000 0.0000 0.0000 (  3823 PWs)   bands (ev):

   -24.6015 -12.5032  -6.7357  -6.7357  -1.0117  -0.2143   0.5577   0.9166

          k =-0.0000 0.0741 0.0000 (  3815 PWs)   bands (ev):

   -24.4868 -12.3610  -7.1879  -6.9966  -0.8540  -0.0535   0.7191   1.0777

          k =-0.0000 0.1482 0.0000 (  3789 PWs)   bands (ev):

   -24.1435 -11.9349  -8.3983  -7.6555  -0.3804   0.4284   1.2033   1.5606

          k =-0.0000 0.2224 0.0000 (  3774 PWs)   bands (ev):

   -23.5736 -11.2357 -10.0717  -8.4717   0.4090   1.2295   2.0105   2.3636

          k =-0.0000 0.2965 0.0000 (  3784 PWs)   bands (ev):

   -22.7813 -11.9615 -10.2753  -9.2616   1.5124   2.3361   3.1400   3.4559

          k =-0.0000 0.3706 0.0000 (  3798 PWs)   bands (ev):

   -21.7724 -13.8886  -9.9210  -9.0898   1.7897   2.9250   3.8268   4.5867

          k =-0.0000 0.4447 0.0000 (  3806 PWs)   bands (ev):

   -20.5564 -15.7565 -10.3813  -7.7716  -0.2623   4.6196   5.3462   5.5662

          k =-0.0000 0.5188 0.0000 (  3828 PWs)   bands (ev):

   -19.1673 -17.4838 -10.6204  -6.6503  -1.7755   5.2096   6.6956   7.6157

          k = 0.0642 0.1112 0.0000 (  3807 PWs)   bands (ev):

   -24.2579 -12.0769  -7.9593  -7.5203  -0.5382   0.2678   1.0419   1.3997

          k = 0.0642 0.1853 0.0000 (  3772 PWs)   bands (ev):

   -23.8012 -11.5135  -9.2964  -8.3586   0.0938   0.9096   1.6878   2.0430

          k = 0.0642 0.2594 0.0000 (  3777 PWs)   bands (ev):

   -23.1203 -11.0187 -10.6828  -9.2207   1.0410   1.8679   2.6566   3.0033

          k = 0.0642 0.3335 0.0000 (  3788 PWs)   bands (ev):

   -22.2198 -12.8988  -9.9714  -9.6047   2.3005   2.7419   3.2396   3.9472

          k = 0.0642 0.4077 0.0000 (  3813 PWs)   bands (ev):

   -21.1076 -14.7819 -10.5433  -8.3355   0.6949   3.8655   4.7637   5.5425

          k = 0.0642 0.4818 0.0000 (  3811 PWs)   bands (ev):

   -19.7989 -16.5757 -10.8961  -7.0402  -1.1500   5.6017   5.9040   6.6561

          k = 0.0642 0.5559 0.0000 (  3826 PWs)   bands (ev):

   -18.5407 -18.0024 -11.0162  -6.3433  -2.0374   5.7023   7.8377   7.9840

          k = 0.1284 0.2224 0.0000 (  3775 PWs)   bands (ev):

   -23.2337 -10.8188 -10.4574  -9.4711   0.8843   1.7100   2.4956   2.8457

          k = 0.1284 0.2965 0.0000 (  3793 PWs)   bands (ev):

   -22.4447 -11.9737 -10.4897  -9.8663   1.9886   2.8183   3.5046   3.6261

          k = 0.1284 0.3706 0.0000 (  3800 PWs)   bands (ev):

   -21.4411 -13.7296 -11.2249  -8.6888   1.5212   3.4027   4.2630   5.0782

          k = 0.1284 0.4447 0.0000 (  3815 PWs)   bands (ev):

   -20.2345 -15.5135 -11.7120  -7.3709  -0.3961   5.1174   5.9837   6.8374

          k = 0.1284 0.5188 0.0000 (  3810 PWs)   bands (ev):

   -18.8629 -17.1910 -11.9551  -6.2248  -1.8619   6.9823   7.2115   7.9116

          k = 0.1926 0.3335 0.0000 (  3781 PWs)   bands (ev):

   -21.5528 -13.0125 -11.8414  -8.8083   1.8748   3.2474   4.0858   4.9180

          k = 0.1926 0.4077 0.0000 (  3794 PWs)   bands (ev):

   -20.4548 -14.4360 -12.7284  -7.5542   0.1540   4.8098   5.6223   6.5302

          k = 0.1926 0.4818 0.0000 (  3808 PWs)   bands (ev):

   -19.1733 -16.0577 -13.1616  -6.2387  -1.4720   6.6581   7.2613   8.4548

          k = 0.1926 0.5559 0.0000 (  3816 PWs)   bands (ev):

   -17.9772 -17.3839 -13.2970  -5.4763  -2.3444   8.0200   8.6587   8.7683

          k = 0.2568 0.4447 0.0000 (  3807 PWs)   bands (ev):

   -19.2795 -15.1878 -14.0734  -6.2607  -1.2697   6.5041   6.9916   8.2916

          k = 0.2568 0.5188 0.0000 (  3824 PWs)   bands (ev):

   -17.9701 -16.4177 -14.6426  -5.0084  -2.5815   7.3606   8.4310   9.8946

          k = 0.3209 0.5559 0.0000 (  3789 PWs)   bands (ev):

   -16.8527 -16.8527 -15.5407  -3.7643  -3.7643   7.1016  10.0839  10.0842

     the Fermi energy is    -3.7643 ev

!    total energy              =     -22.75186039 Ry
     estimated scf accuracy    <          1.3E-09 Ry
     smearing contrib. (-TS)   =      -0.00005015 Ry
     internal energy E=F+TS    =     -22.75181024 Ry

     The total energy is F=E-TS. E is the sum of the following terms:
     one-electron contribution =    -429.55953833 Ry
     hartree contribution      =     215.51360591 Ry
     xc contribution           =      -7.24012254 Ry
     ewald contribution        =     198.53424471 Ry

     convergence has been achieved in  23 iterations

     Forces acting on atoms (cartesian axes, Ry/au):

     atom    1 type  1   force =     0.00000000    0.00000000    0.00000000
     atom    2 type  1   force =     0.00000000    0.00000000    0.00000000

     Total force =     0.000000     Total SCF correction =     0.000000


     Computing stress (Cartesian axis) and pressure

          total   stress  (Ry/bohr**3)                   (kbar)     P=       57.73
   0.00065764   0.00000000  -0.00000000           96.74        0.00       -0.00
   0.00000000   0.00065764   0.00000000            0.00       96.74        0.00
  -0.00000000   0.00000000  -0.00013795           -0.00        0.00      -20.29

     Energy error            =      5.6E-02
     Gradient error          =      0.0E+00
     Cell gradient error     =      6.6E-04


     number of scf cycles    =   2
     number of bfgs steps    =   1

     enthalpy old            =     -22.6960377576 Ry
     enthalpy new            =     -22.7518603947 Ry

     CASE: enthalpy_new < enthalpy_old

     new trust radius        =       0.1545003684 bohr
     new conv_thr            =            1.0E-10 Ry

     new unit-cell volume =    727.68326 a.u.^3 (   107.83153 Ang^3 )
     density =      0.36991 g/cm^3

CELL_PARAMETERS (alat=  4.26000000)
   1.069224167   0.000000000   0.000000000
  -0.534612084   0.925975291   0.000000000
   0.000000000   0.000000000   9.507042254

ATOMIC_POSITIONS (crystal)
C             0.3333333333        0.6666666667        0.5000000000
C             0.6666666667        0.3333333333        0.5000000000



     Writing output data file ./work/LiC426.save/
     NEW-OLD atomic charge density approx. for the potential

     negative rho (up, down):  6.097E-05 0.000E+00
     extrapolated charge    8.45085, renormalised to    8.00000

     total cpu time spent up to now is        7.0 secs

     Self-consistent Calculation

     iteration #  1     ecut=    50.00 Ry     beta= 0.70
     Davidson diagonalization with overlap
     c_bands:  1 eigenvalues not converged
     c_bands:  2 eigenvalues not converged
     c_bands:  1 eigenvalues not converged
     c_bands:  3 eigenvalues not converged
     c_bands:  2 eigenvalues not converged
     c_bands:  3 eigenvalues not converged
     c_bands:  1 eigenvalues not converged
     c_bands:  3 eigenvalues not converged
     c_bands:  2 eigenvalues not converged
     c_bands:  2 eigenvalues not converged
     c_bands:  4 eigenvalues not converged
     c_bands:  3 eigenvalues not converged
     c_bands:  2 eigenvalues not converged
     c_bands:  2 eigenvalues not converged
     c_bands:  3 eigenvalues not converged
     c_bands:  3 eigenvalues not converged
     c_bands:  5 eigenvalues not converged
     c_bands:  2 eigenvalues not converged
     c_bands:  5 eigenvalues not converged
     c_bands:  5 eigenvalues not converged
     c_bands:  5 eigenvalues not converged
     c_bands:  4 eigenvalues not converged
     c_bands:  5 eigenvalues not converged
     c_bands:  5 eigenvalues not converged
     ethr =  1.00E-06,  avg # of iterations = 19.6

     negative rho (up, down):  1.381E-06 0.000E+00

     total cpu time spent up to now is        7.8 secs

     total energy              =     614.16977990 Ry
     estimated scf accuracy    <     353.97797120 Ry

     iteration #  2     ecut=    50.00 Ry     beta= 0.70
     Davidson diagonalization with overlap
     c_bands:  2 eigenvalues not converged
     c_bands:  2 eigenvalues not converged
     c_bands:  5 eigenvalues not converged
     c_bands:  2 eigenvalues not converged
     c_bands:  1 eigenvalues not converged
     c_bands:  2 eigenvalues not converged
     c_bands:  1 eigenvalues not converged
     c_bands:  1 eigenvalues not converged
     ethr =  1.00E-02,  avg # of iterations = 37.3

     negative rho (up, down):  3.298E-07 0.000E+00

     total cpu time spent up to now is        9.2 secs

     total energy              =    -139.92071222 Ry
     estimated scf accuracy    <     180.39004368 Ry

     iteration #  3     ecut=    50.00 Ry     beta= 0.70
     Davidson diagonalization with overlap
     c_bands:  1 eigenvalues not converged
     ethr =  1.00E-02,  avg # of iterations =  4.5

     total cpu time spent up to now is        9.4 secs

     total energy              =     -49.99919336 Ry
     estimated scf accuracy    <      62.36845450 Ry

     iteration #  4     ecut=    50.00 Ry     beta= 0.70
     Davidson diagonalization with overlap
     ethr =  1.00E-02,  avg # of iterations =  4.5

     negative rho (up, down):  3.768E-08 0.000E+00

     total cpu time spent up to now is        9.5 secs

     total energy              =     -49.99103185 Ry
     estimated scf accuracy    <      14.73517763 Ry

     iteration #  5     ecut=    50.00 Ry     beta= 0.70
     Davidson diagonalization with overlap
     ethr =  1.00E-02,  avg # of iterations =  1.0

     total cpu time spent up to now is        9.6 secs

     total energy              =     -24.62529781 Ry
     estimated scf accuracy    <      14.53328320 Ry

     iteration #  6     ecut=    50.00 Ry     beta= 0.70
     Davidson diagonalization with overlap
     ethr =  1.00E-02,  avg # of iterations =  3.9

     total cpu time spent up to now is        9.8 secs

     total energy              =     -30.67657480 Ry
     estimated scf accuracy    <       1.17544228 Ry

     iteration #  7     ecut=    50.00 Ry     beta= 0.70
     Davidson diagonalization with overlap
     ethr =  1.00E-02,  avg # of iterations =  1.3

     total cpu time spent up to now is        9.9 secs

     total energy              =     -30.78923705 Ry
     estimated scf accuracy    <       4.19231486 Ry

     iteration #  8     ecut=    50.00 Ry     beta= 0.70
     Davidson diagonalization with overlap
     ethr =  1.00E-02,  avg # of iterations =  1.0

     total cpu time spent up to now is       10.0 secs

     total energy              =     -29.47026039 Ry
     estimated scf accuracy    <       4.22682432 Ry

     iteration #  9     ecut=    50.00 Ry     beta= 0.70
     Davidson diagonalization with overlap
     ethr =  1.00E-02,  avg # of iterations =  1.0

     total cpu time spent up to now is       10.1 secs

     total energy              =     -27.79213856 Ry
     estimated scf accuracy    <       3.54349618 Ry

     iteration # 10     ecut=    50.00 Ry     beta= 0.70
     Davidson diagonalization with overlap
     ethr =  1.00E-02,  avg # of iterations =  1.0

     negative rho (up, down):  1.567E-04 0.000E+00

     total cpu time spent up to now is       10.2 secs

     total energy              =     -22.64691330 Ry
     estimated scf accuracy    <       2.66242001 Ry

     iteration # 11     ecut=    50.00 Ry     beta= 0.70
     Davidson diagonalization with overlap
     ethr =  1.00E-02,  avg # of iterations =  5.6

     negative rho (up, down):  1.811E-02 0.000E+00

     total cpu time spent up to now is       10.4 secs

     total energy              =     -22.90013679 Ry
     estimated scf accuracy    <       0.06514652 Ry

     iteration # 12     ecut=    50.00 Ry     beta= 0.70
     Davidson diagonalization with overlap
     ethr =  8.14E-04,  avg # of iterations = 10.1

     negative rho (up, down):  5.916E-02 0.000E+00

     total cpu time spent up to now is       10.7 secs

     total energy              =     -23.15656080 Ry
     estimated scf accuracy    <       1.08329836 Ry

     iteration # 13     ecut=    50.00 Ry     beta= 0.70
     Davidson diagonalization with overlap
     ethr =  8.14E-04,  avg # of iterations =  2.7

     negative rho (up, down):  9.524E-02 0.000E+00

     total cpu time spent up to now is       10.8 secs

     total energy              =     -23.52873280 Ry
     estimated scf accuracy    <       4.31262794 Ry

     iteration # 14     ecut=    50.00 Ry     beta= 0.70
     Davidson diagonalization with overlap
     ethr =  8.14E-04,  avg # of iterations =  5.2

     negative rho (up, down):  3.538E-02 0.000E+00

     total cpu time spent up to now is       11.0 secs

     total energy              =     -21.98533566 Ry
     estimated scf accuracy    <      22.29905624 Ry

     iteration # 15     ecut=    50.00 Ry     beta= 0.70
     Davidson diagonalization with overlap
     ethr =  8.14E-04,  avg # of iterations =  6.6

     negative rho (up, down):  2.822E-02 0.000E+00

     total cpu time spent up to now is       11.2 secs

     total energy              =     -22.81562116 Ry
     estimated scf accuracy    <       1.31012785 Ry

     iteration # 16     ecut=    50.00 Ry     beta= 0.70
     Davidson diagonalization with overlap
     ethr =  8.14E-04,  avg # of iterations =  1.0

     negative rho (up, down):  3.073E-02 0.000E+00

     total cpu time spent up to now is       11.3 secs

     total energy              =     -22.61595418 Ry
     estimated scf accuracy    <       1.29314470 Ry

     iteration # 17     ecut=    50.00 Ry     beta= 0.70
     Davidson diagonalization with overlap
     ethr =  8.14E-04,  avg # of iterations =  6.7

     negative rho (up, down):  9.925E-03 0.000E+00

     total cpu time spent up to now is       11.5 secs

     total energy              =     -23.01009892 Ry
     estimated scf accuracy    <       0.35729284 Ry

     iteration # 18     ecut=    50.00 Ry     beta= 0.70
     Davidson diagonalization with overlap
     c_bands:  1 eigenvalues not converged
     ethr =  8.14E-04,  avg # of iterations = 12.1

     negative rho (up, down):  2.219E-02 0.000E+00

     total cpu time spent up to now is       11.8 secs

     total energy              =     -24.51999576 Ry
     estimated scf accuracy    <       0.25952385 Ry

     iteration # 19     ecut=    50.00 Ry     beta= 0.70
     Davidson diagonalization with overlap
     c_bands:  1 eigenvalues not converged
     ethr =  8.14E-04,  avg # of iterations =  7.3

     negative rho (up, down):  2.732E-02 0.000E+00

     total cpu time spent up to now is       12.0 secs

     total energy              =     -25.34828703 Ry
     estimated scf accuracy    <       0.96576303 Ry

     iteration # 20     ecut=    50.00 Ry     beta= 0.70
     Davidson diagonalization with overlap
     ethr =  8.14E-04,  avg # of iterations =  3.7

     negative rho (up, down):  6.268E-02 0.000E+00

     total cpu time spent up to now is       12.2 secs

     total energy              =     -27.96743787 Ry
     estimated scf accuracy    <       1.38987694 Ry

     iteration # 21     ecut=    50.00 Ry     beta= 0.70
     Davidson diagonalization with overlap
     c_bands:  2 eigenvalues not converged
     ethr =  8.14E-04,  avg # of iterations =  7.7

     negative rho (up, down):  7.757E-02 0.000E+00

     total cpu time spent up to now is       12.4 secs

     total energy              =     -22.65281330 Ry
     estimated scf accuracy    <       2.76163691 Ry

     iteration # 22     ecut=    50.00 Ry     beta= 0.70
     Davidson diagonalization with overlap
     c_bands:  1 eigenvalues not converged
     ethr =  8.14E-04,  avg # of iterations = 13.3

     negative rho (up, down):  6.927E-02 0.000E+00

     total cpu time spent up to now is       12.7 secs

     total energy              =     -22.77601007 Ry
     estimated scf accuracy    <       4.41848802 Ry

     iteration # 23     ecut=    50.00 Ry     beta= 0.70
     Davidson diagonalization with overlap
     ethr =  8.14E-04,  avg # of iterations =  1.1

     negative rho (up, down):  3.224E-02 0.000E+00

     total cpu time spent up to now is       12.8 secs

     total energy              =     -22.18432651 Ry
     estimated scf accuracy    <       1.07449973 Ry

     iteration # 24     ecut=    50.00 Ry     beta= 0.70
     Davidson diagonalization with overlap
     ethr =  8.14E-04,  avg # of iterations =  6.1

     negative rho (up, down):  3.019E-02 0.000E+00

     total cpu time spent up to now is       13.0 secs

     total energy              =     -22.80376080 Ry
     estimated scf accuracy    <       0.01590629 Ry

     iteration # 25     ecut=    50.00 Ry     beta= 0.70
     Davidson diagonalization with overlap
     ethr =  1.99E-04,  avg # of iterations =  7.7

     negative rho (up, down):  3.455E-02 0.000E+00

     total cpu time spent up to now is       13.2 secs

     total energy              =     -22.81751015 Ry
     estimated scf accuracy    <       0.02219258 Ry

     iteration # 26     ecut=    50.00 Ry     beta= 0.70
     Davidson diagonalization with overlap
     ethr =  1.99E-04,  avg # of iterations =  2.6

     negative rho (up, down):  1.850E-02 0.000E+00

     total cpu time spent up to now is       13.3 secs

     total energy              =     -22.80645512 Ry
     estimated scf accuracy    <       0.03382938 Ry

     iteration # 27     ecut=    50.00 Ry     beta= 0.70
     Davidson diagonalization with overlap
     ethr =  1.99E-04,  avg # of iterations =  1.4

     negative rho (up, down):  1.029E-02 0.000E+00

     total cpu time spent up to now is       13.5 secs

     total energy              =     -22.80033376 Ry
     estimated scf accuracy    <       0.02293921 Ry

     iteration # 28     ecut=    50.00 Ry     beta= 0.70
     Davidson diagonalization with overlap
     ethr =  1.99E-04,  avg # of iterations =  1.0

     negative rho (up, down):  6.990E-03 0.000E+00

     total cpu time spent up to now is       13.6 secs

     total energy              =     -22.79497882 Ry
     estimated scf accuracy    <       0.01910924 Ry

     iteration # 29     ecut=    50.00 Ry     beta= 0.70
     Davidson diagonalization with overlap
     ethr =  1.99E-04,  avg # of iterations =  1.4

     negative rho (up, down):  2.089E-04 0.000E+00

     total cpu time spent up to now is       13.7 secs

     total energy              =     -22.78088862 Ry
     estimated scf accuracy    <       0.01614554 Ry

     iteration # 30     ecut=    50.00 Ry     beta= 0.70
     Davidson diagonalization with overlap
     ethr =  1.99E-04,  avg # of iterations =  2.7

     negative rho (up, down):  4.244E-06 0.000E+00

     total cpu time spent up to now is       13.8 secs

     total energy              =     -22.78192511 Ry
     estimated scf accuracy    <       0.00853664 Ry

     iteration # 31     ecut=    50.00 Ry     beta= 0.70
     Davidson diagonalization with overlap
     ethr =  1.07E-04,  avg # of iterations =  1.0

     total cpu time spent up to now is       13.9 secs

     total energy              =     -22.77682635 Ry
     estimated scf accuracy    <       0.00901848 Ry

     iteration # 32     ecut=    50.00 Ry     beta= 0.70
     Davidson diagonalization with overlap
     ethr =  1.07E-04,  avg # of iterations =  2.7

     negative rho (up, down):  4.163E-04 0.000E+00

     total cpu time spent up to now is       14.0 secs

     total energy              =     -22.76716113 Ry
     estimated scf accuracy    <       0.00607065 Ry

     iteration # 33     ecut=    50.00 Ry     beta= 0.70
     Davidson diagonalization with overlap
     ethr =  7.59E-05,  avg # of iterations =  8.3

     negative rho (up, down):  2.186E-04 0.000E+00

     total cpu time spent up to now is       14.3 secs

     total energy              =     -22.76740907 Ry
     estimated scf accuracy    <       0.00000184 Ry

     iteration # 34     ecut=    50.00 Ry     beta= 0.70
     Davidson diagonalization with overlap
     c_bands:  1 eigenvalues not converged
     ethr =  2.30E-08,  avg # of iterations =  6.7

     negative rho (up, down):  1.665E-05 0.000E+00

     total cpu time spent up to now is       14.5 secs

     total energy              =     -22.76741114 Ry
     estimated scf accuracy    <       0.00000010 Ry

     iteration # 35     ecut=    50.00 Ry     beta= 0.70
     Davidson diagonalization with overlap
     ethr =  1.19E-09,  avg # of iterations =  5.5

     total cpu time spent up to now is       14.6 secs

     total energy              =     -22.76741113 Ry
     estimated scf accuracy    <          3.7E-09 Ry

     iteration # 36     ecut=    50.00 Ry     beta= 0.70
     Davidson diagonalization with overlap
     ethr =  4.63E-11,  avg # of iterations =  3.4

     total cpu time spent up to now is       14.8 secs

     total energy              =     -22.76741114 Ry
     estimated scf accuracy    <          2.0E-10 Ry

     iteration # 37     ecut=    50.00 Ry     beta= 0.70
     Davidson diagonalization with overlap
     ethr =  2.48E-12,  avg # of iterations =  2.6

     total cpu time spent up to now is       14.9 secs

     End of self-consistent calculation

          k = 0.0000 0.0000 0.0000 (  3823 PWs)   bands (ev):

   -24.1649 -12.1494  -7.0504  -7.0504  -0.9972  -0.2130   0.5634   0.9217

          k =-0.0000 0.0720 0.0000 (  3815 PWs)   bands (ev):

   -24.0556 -12.0166  -7.4872  -7.2885  -0.8481  -0.0615   0.7157   1.0735

          k =-0.0000 0.1440 0.0000 (  3789 PWs)   bands (ev):

   -23.7282 -11.6190  -8.6528  -7.8930  -0.4008   0.3926   1.1726   1.5287

          k =-0.0000 0.2160 0.0000 (  3774 PWs)   bands (ev):

   -23.1850 -10.9673 -10.2586  -8.6452   0.3446   1.1470   1.9342   2.2849

          k =-0.0000 0.2880 0.0000 (  3784 PWs)   bands (ev):

   -22.4303 -12.0683 -10.0731  -9.3765   1.3860   2.1805   2.9991   3.1400

          k =-0.0000 0.3600 0.0000 (  3798 PWs)   bands (ev):

   -21.4706 -13.9078  -9.9900  -8.9722   1.1557   2.7172   3.5858   4.2645

          k =-0.0000 0.4320 0.0000 (  3806 PWs)   bands (ev):

   -20.3183 -15.6838 -10.4180  -7.7533  -0.7262   4.0555   4.4199   5.2270

          k =-0.0000 0.5040 0.0000 (  3828 PWs)   bands (ev):

   -19.0354 -17.2908 -10.6413  -6.7266  -2.1055   4.0097   6.2653   7.1507

          k = 0.0624 0.1080 0.0000 (  3807 PWs)   bands (ev):

   -23.8373 -11.7516  -8.2343  -7.7687  -0.5498   0.2413   1.0203   1.3770

          k = 0.0624 0.1800 0.0000 (  3772 PWs)   bands (ev):

   -23.4020 -11.2261  -9.5218  -8.5420   0.0470   0.8460   1.6298   1.9832

          k = 0.0624 0.2520 0.0000 (  3777 PWs)   bands (ev):

   -22.7531 -11.1718 -10.4524  -9.3439   0.9410   1.7477   2.5436   2.8858

          k = 0.0624 0.3240 0.0000 (  3788 PWs)   bands (ev):

   -21.8958 -12.9680 -10.0454  -9.4497   2.0592   2.1294   2.9919   3.7598

          k = 0.0624 0.3960 0.0000 (  3813 PWs)   bands (ev):

   -20.8393 -14.7612 -10.5810  -8.2732   0.1416   3.6017   4.4711   4.6956

          k = 0.0624 0.4680 0.0000 (  3811 PWs)   bands (ev):

   -19.6068 -16.4562 -10.9112  -7.0801  -1.5447   4.5232   5.4010   6.2491

          k = 0.0624 0.5400 0.0000 (  3826 PWs)   bands (ev):

   -18.5365 -17.6882 -11.0238  -6.4456  -2.3502   4.4830   7.3366   7.4899

          k = 0.1247 0.2160 0.0000 (  3775 PWs)   bands (ev):

   -22.8611 -10.6556 -10.5788  -9.5690   0.7930   1.5997   2.3918   2.7394

          k = 0.1247 0.2880 0.0000 (  3793 PWs)   bands (ev):

   -22.1098 -12.1087 -10.5275  -9.6925   1.8350   2.5974   2.7364   3.4582

          k = 0.1247 0.3600 0.0000 (  3800 PWs)   bands (ev):

   -21.1553 -13.7741 -11.2303  -8.5993   0.8760   3.1687   3.9999   4.8268

          k = 0.1247 0.4320 0.0000 (  3815 PWs)   bands (ev):

   -20.0123 -15.4625 -11.6962  -7.3805  -0.8785   4.7827   5.6148   5.9140

          k = 0.1247 0.5040 0.0000 (  3810 PWs)   bands (ev):

   -18.7456 -17.0183 -11.9280  -6.3295  -2.2145   5.7961   6.6896   7.4046

          k = 0.1871 0.3240 0.0000 (  3781 PWs)   bands (ev):

   -21.2612 -13.1396 -11.7747  -8.7095   1.1837   3.0222   3.8349   4.6765

          k = 0.1871 0.3960 0.0000 (  3794 PWs)   bands (ev):

   -20.2189 -14.4831 -12.6309  -7.5472  -0.3999   4.4950   5.2749   6.1965

          k = 0.1871 0.4680 0.0000 (  3808 PWs)   bands (ev):

   -19.0138 -15.9920 -13.0650  -6.3337  -1.8915   6.2332   6.7932   7.6351

          k = 0.1871 0.5400 0.0000 (  3816 PWs)   bands (ev):

   -17.9841 -17.1399 -13.2006  -5.6368  -2.6864   7.4834   7.5656   8.0942

          k = 0.2494 0.4320 0.0000 (  3807 PWs)   bands (ev):

   -19.1091 -15.2585 -13.8495  -6.3506  -1.7239   6.0896   6.5444   7.8220

          k = 0.2494 0.5040 0.0000 (  3824 PWs)   bands (ev):

   -17.9001 -16.3746 -14.4128  -5.1960  -2.9363   6.9042   7.8872   9.3389

          k = 0.3118 0.5400 0.0000 (  3789 PWs)   bands (ev):

   -16.8829 -16.8829 -15.1274  -4.0417  -4.0417   6.6824   9.3053   9.3053

     the Fermi energy is    -4.0417 ev

!    total energy              =     -22.76741114 Ry
     estimated scf accuracy    <          1.4E-11 Ry
     smearing contrib. (-TS)   =      -0.00005015 Ry
     internal energy E=F+TS    =     -22.76736099 Ry

     The total energy is F=E-TS. E is the sum of the following terms:
     one-electron contribution =    -404.98780049 Ry
     hartree contribution      =     203.16046420 Ry
     xc contribution           =      -7.10825137 Ry
     ewald contribution        =     186.16822667 Ry

     convergence has been achieved in  37 iterations

     Forces acting on atoms (cartesian axes, Ry/au):

     atom    1 type  1   force =     0.00000000    0.00000000    0.00000000
     atom    2 type  1   force =     0.00000000    0.00000000    0.00000000

     Total force =     0.000000     Total SCF correction =     0.000000


     Computing stress (Cartesian axis) and pressure

          total   stress  (Ry/bohr**3)                   (kbar)     P=        5.33
   0.00012409  -0.00000000  -0.00000000           18.25       -0.00       -0.00
   0.00000000   0.00012409   0.00000000            0.00       18.25        0.00
  -0.00000000   0.00000000  -0.00013953           -0.00        0.00      -20.53

     Energy error            =      1.6E-02
     Gradient error          =      0.0E+00
     Cell gradient error     =      1.2E-04


     number of scf cycles    =   3
     number of bfgs steps    =   2

     enthalpy old            =     -22.7518603947 Ry
     enthalpy new            =     -22.7674111437 Ry

     CASE: enthalpy_new < enthalpy_old

     new trust radius        =       0.0372475848 bohr
     new conv_thr            =            1.0E-10 Ry

     new unit-cell volume =    737.76571 a.u.^3 (   109.32560 Ang^3 )
     density =      0.36486 g/cm^3

CELL_PARAMETERS (alat=  4.26000000)
   1.076606026   0.000000000   0.000000000
  -0.538303013   0.932368168   0.000000000
   0.000000000   0.000000000   9.507042254

ATOMIC_POSITIONS (crystal)
C             0.3333333333        0.6666666667        0.5000000000
C             0.6666666667        0.3333333333        0.5000000000



     Writing output data file ./work/LiC426.save/
     NEW-OLD atomic charge density approx. for the potential

     negative rho (up, down):  6.791E-06 0.000E+00
     extrapolated charge    8.10914, renormalised to    8.00000

     total cpu time spent up to now is       15.0 secs

     Self-consistent Calculation

     iteration #  1     ecut=    50.00 Ry     beta= 0.70
     Davidson diagonalization with overlap
     c_bands:  1 eigenvalues not converged
     c_bands:  1 eigenvalues not converged
     c_bands:  1 eigenvalues not converged
     c_bands:  1 eigenvalues not converged
     c_bands:  1 eigenvalues not converged
     ethr =  1.00E-06,  avg # of iterations = 13.8

     total cpu time spent up to now is       15.4 secs

     total energy              =       8.42005028 Ry
     estimated scf accuracy    <      17.88073644 Ry

     iteration #  2     ecut=    50.00 Ry     beta= 0.70
     Davidson diagonalization with overlap
     ethr =  1.00E-02,  avg # of iterations = 13.1

     total cpu time spent up to now is       15.7 secs

     total energy              =     -28.39021765 Ry
     estimated scf accuracy    <       9.57103979 Ry

     iteration #  3     ecut=    50.00 Ry     beta= 0.70
     Davidson diagonalization with overlap
     ethr =  1.00E-02,  avg # of iterations =  1.8

     total cpu time spent up to now is       15.8 secs

     total energy              =     -24.89812003 Ry
     estimated scf accuracy    <       3.22411929 Ry

     iteration #  4     ecut=    50.00 Ry     beta= 0.70
     Davidson diagonalization with overlap
     ethr =  1.00E-02,  avg # of iterations =  1.7

     total cpu time spent up to now is       15.9 secs

     total energy              =     -23.85085970 Ry
     estimated scf accuracy    <       1.21624490 Ry

     iteration #  5     ecut=    50.00 Ry     beta= 0.70
     Davidson diagonalization with overlap
     ethr =  1.00E-02,  avg # of iterations =  1.2

     total cpu time spent up to now is       16.0 secs

     total energy              =     -23.13931111 Ry
     estimated scf accuracy    <       0.62442538 Ry

     iteration #  6     ecut=    50.00 Ry     beta= 0.70
     Davidson diagonalization with overlap
     ethr =  7.81E-03,  avg # of iterations =  2.0

     total cpu time spent up to now is       16.2 secs

     total energy              =     -23.23885253 Ry
     estimated scf accuracy    <       0.21678475 Ry

     iteration #  7     ecut=    50.00 Ry     beta= 0.70
     Davidson diagonalization with overlap
     ethr =  2.71E-03,  avg # of iterations =  2.1

     total cpu time spent up to now is       16.3 secs

     total energy              =     -23.25866505 Ry
     estimated scf accuracy    <       0.26894152 Ry

     iteration #  8     ecut=    50.00 Ry     beta= 0.70
     Davidson diagonalization with overlap
     ethr =  2.71E-03,  avg # of iterations =  1.0

     total cpu time spent up to now is       16.4 secs

     total energy              =     -23.36493347 Ry
     estimated scf accuracy    <       0.27864775 Ry

     iteration #  9     ecut=    50.00 Ry     beta= 0.70
     Davidson diagonalization with overlap
     ethr =  2.71E-03,  avg # of iterations =  1.0

     total cpu time spent up to now is       16.5 secs

     total energy              =     -23.07112619 Ry
     estimated scf accuracy    <       0.33784087 Ry

     iteration # 10     ecut=    50.00 Ry     beta= 0.70
     Davidson diagonalization with overlap
     ethr =  2.71E-03,  avg # of iterations =  2.7

     negative rho (up, down):  1.643E-04 0.000E+00

     total cpu time spent up to now is       16.6 secs

     total energy              =     -22.76028186 Ry
     estimated scf accuracy    <       0.17370140 Ry

     iteration # 11     ecut=    50.00 Ry     beta= 0.70
     Davidson diagonalization with overlap
     ethr =  2.17E-03,  avg # of iterations =  6.0

     negative rho (up, down):  2.200E-04 0.000E+00

     total cpu time spent up to now is       16.8 secs

     total energy              =     -22.76824741 Ry
     estimated scf accuracy    <       0.00033762 Ry

     iteration # 12     ecut=    50.00 Ry     beta= 0.70
     Davidson diagonalization with overlap
     c_bands:  1 eigenvalues not converged
     c_bands:  1 eigenvalues not converged
     c_bands:  1 eigenvalues not converged
     c_bands:  1 eigenvalues not converged
     c_bands:  1 eigenvalues not converged
     c_bands:  1 eigenvalues not converged
     c_bands:  1 eigenvalues not converged
     ethr =  4.22E-06,  avg # of iterations = 13.6

     negative rho (up, down):  5.343E-04 0.000E+00

     total cpu time spent up to now is       17.1 secs

     total energy              =     -22.76812608 Ry
     estimated scf accuracy    <       0.00054406 Ry

     iteration # 13     ecut=    50.00 Ry     beta= 0.70
     Davidson diagonalization with overlap
     ethr =  4.22E-06,  avg # of iterations =  5.0

     negative rho (up, down):  1.208E-04 0.000E+00

     total cpu time spent up to now is       17.3 secs

     total energy              =     -22.76814384 Ry
     estimated scf accuracy    <       0.00040613 Ry

     iteration # 14     ecut=    50.00 Ry     beta= 0.70
     Davidson diagonalization with overlap
     ethr =  4.22E-06,  avg # of iterations =  6.2

     total cpu time spent up to now is       17.4 secs

     total energy              =     -22.76819351 Ry
     estimated scf accuracy    <       0.00013639 Ry

     iteration # 15     ecut=    50.00 Ry     beta= 0.70
     Davidson diagonalization with overlap
     ethr =  1.70E-06,  avg # of iterations =  4.6

     negative rho (up, down):  1.634E-06 0.000E+00

     total cpu time spent up to now is       17.6 secs

     total energy              =     -22.76829409 Ry
     estimated scf accuracy    <       0.00021471 Ry

     iteration # 16     ecut=    50.00 Ry     beta= 0.70
     Davidson diagonalization with overlap
     ethr =  1.70E-06,  avg # of iterations =  3.7

     negative rho (up, down):  6.643E-07 0.000E+00

     total cpu time spent up to now is       17.7 secs

     total energy              =     -22.76838038 Ry
     estimated scf accuracy    <       0.00042780 Ry

     iteration # 17     ecut=    50.00 Ry     beta= 0.70
     Davidson diagonalization with overlap
     ethr =  1.70E-06,  avg # of iterations =  1.5

     negative rho (up, down):  1.013E-07 0.000E+00

     total cpu time spent up to now is       17.8 secs

     total energy              =     -22.76818774 Ry
     estimated scf accuracy    <       0.00063028 Ry

     iteration # 18     ecut=    50.00 Ry     beta= 0.70
     Davidson diagonalization with overlap
     ethr =  1.70E-06,  avg # of iterations =  4.2

     total cpu time spent up to now is       18.0 secs

     total energy              =     -22.76813952 Ry
     estimated scf accuracy    <       0.00022128 Ry

     iteration # 19     ecut=    50.00 Ry     beta= 0.70
     Davidson diagonalization with overlap
     ethr =  1.70E-06,  avg # of iterations =  2.5

     total cpu time spent up to now is       18.1 secs

     total energy              =     -22.76811194 Ry
     estimated scf accuracy    <       0.00012913 Ry

     iteration # 20     ecut=    50.00 Ry     beta= 0.70
     Davidson diagonalization with overlap
     ethr =  1.61E-06,  avg # of iterations =  1.2

     negative rho (up, down):  1.750E-06 0.000E+00

     total cpu time spent up to now is       18.2 secs

     total energy              =     -22.76809767 Ry
     estimated scf accuracy    <       0.00003979 Ry

     iteration # 21     ecut=    50.00 Ry     beta= 0.70
     Davidson diagonalization with overlap
     ethr =  4.97E-07,  avg # of iterations =  4.5

     negative rho (up, down):  2.071E-06 0.000E+00

     total cpu time spent up to now is       18.4 secs

     total energy              =     -22.76810219 Ry
     estimated scf accuracy    <       0.00000087 Ry

     iteration # 22     ecut=    50.00 Ry     beta= 0.70
     Davidson diagonalization with overlap
     ethr =  1.08E-08,  avg # of iterations =  2.0

     total cpu time spent up to now is       18.5 secs

     total energy              =     -22.76810227 Ry
     estimated scf accuracy    <       0.00000019 Ry

     iteration # 23     ecut=    50.00 Ry     beta= 0.70
     Davidson diagonalization with overlap
     ethr =  2.43E-09,  avg # of iterations =  2.0

     total cpu time spent up to now is       18.6 secs

     total energy              =     -22.76810231 Ry
     estimated scf accuracy    <          1.0E-09 Ry

     iteration # 24     ecut=    50.00 Ry     beta= 0.70
     Davidson diagonalization with overlap
     ethr =  1.31E-11,  avg # of iterations =  3.9

     total cpu time spent up to now is       18.8 secs

     total energy              =     -22.76810232 Ry
     estimated scf accuracy    <          6.0E-10 Ry

     iteration # 25     ecut=    50.00 Ry     beta= 0.70
     Davidson diagonalization with overlap
     ethr =  7.52E-12,  avg # of iterations =  1.0

     total cpu time spent up to now is       18.9 secs

     End of self-consistent calculation

          k = 0.0000 0.0000 0.0000 (  3823 PWs)   bands (ev):

   -24.0616 -12.0681  -7.1182  -7.1182  -0.9936  -0.2129   0.5635   0.9220

          k =-0.0000 0.0715 0.0000 (  3815 PWs)   bands (ev):

   -23.9536 -11.9375  -7.5518  -7.3511  -0.8466  -0.0635   0.7138   1.0716

          k =-0.0000 0.1430 0.0000 (  3789 PWs)   bands (ev):

   -23.6299 -11.5464  -8.7077  -7.9434  -0.4051   0.3843   1.1645   1.5204

          k =-0.0000 0.2145 0.0000 (  3774 PWs)   bands (ev):

   -23.0930 -10.9056 -10.2984  -8.6811   0.3302   1.1280   1.9156   2.2659

          k =-0.0000 0.2860 0.0000 (  3784 PWs)   bands (ev):

   -22.3471 -12.0900 -10.0265  -9.3992   1.3574   2.1430   2.9657   2.9839

          k =-0.0000 0.3575 0.0000 (  3798 PWs)   bands (ev):

   -21.3991 -13.9090 -10.0022  -8.9449   1.0099   2.6698   3.5306   4.0358

          k =-0.0000 0.4290 0.0000 (  3806 PWs)   bands (ev):

   -20.2621 -15.6633 -10.4230  -7.7487  -0.8327   3.8116   4.3228   5.1490

          k =-0.0000 0.5005 0.0000 (  3828 PWs)   bands (ev):

   -19.0054 -17.2409 -10.6427  -6.7433  -2.1816   3.7353   6.1680   7.0438

          k = 0.0619 0.1073 0.0000 (  3807 PWs)   bands (ev):

   -23.7378 -11.6768  -8.2938  -7.8216  -0.5522   0.2351   1.0143   1.3709

          k = 0.0619 0.1788 0.0000 (  3772 PWs)   bands (ev):

   -23.3074 -11.1600  -9.5703  -8.5801   0.0365   0.8312   1.6154   1.9685

          k = 0.0619 0.2503 0.0000 (  3777 PWs)   bands (ev):

   -22.6661 -11.2041 -10.3993  -9.3683   0.9185   1.7199   2.5167   2.8576

          k = 0.0619 0.3218 0.0000 (  3788 PWs)   bands (ev):

   -21.8190 -12.9811 -10.0586  -9.4138   1.8956   2.0906   2.9417   3.7157

          k = 0.0619 0.3933 0.0000 (  3813 PWs)   bands (ev):

   -20.7758 -14.7532 -10.5859  -8.2585   0.0147   3.5407   4.4038   4.4287

          k = 0.0619 0.4648 0.0000 (  3811 PWs)   bands (ev):

   -19.5618 -16.4245 -10.9109  -7.0887  -1.6354   4.2505   5.3125   6.1556

          k = 0.0619 0.5363 0.0000 (  3826 PWs)   bands (ev):

   -18.5309 -17.6155 -11.0218  -6.4682  -2.4224   4.2043   7.2224   7.3774

          k = 0.1238 0.2145 0.0000 (  3775 PWs)   bands (ev):

   -22.7729 -10.6981 -10.5235  -9.5877   0.7724   1.5743   2.3670   2.7141

          k = 0.1238 0.2860 0.0000 (  3793 PWs)   bands (ev):

   -22.0304 -12.1373 -10.5320  -9.6523   1.8002   2.4660   2.6405   3.4187

          k = 0.1238 0.3575 0.0000 (  3800 PWs)   bands (ev):

   -21.0875 -13.7820 -11.2271  -8.5785   0.7287   3.1156   3.9393   4.7682

          k = 0.1238 0.4290 0.0000 (  3815 PWs)   bands (ev):

   -19.9598 -15.4478 -11.6881  -7.3821  -0.9888   4.7057   5.5301   5.6335

          k = 0.1238 0.5005 0.0000 (  3810 PWs)   bands (ev):

   -18.7187 -16.9742 -11.9173  -6.3527  -2.2954   5.5102   6.5846   7.2884

          k = 0.1858 0.3218 0.0000 (  3781 PWs)   bands (ev):

   -21.1920 -13.1659 -11.7555  -8.6866   1.0264   2.9711   3.7770   4.6202

          k = 0.1858 0.3933 0.0000 (  3794 PWs)   bands (ev):

   -20.1630 -14.4920 -12.6031  -7.5451  -0.5260   4.4235   5.1949   6.1190

          k = 0.1858 0.4648 0.0000 (  3808 PWs)   bands (ev):

   -18.9762 -15.9748 -13.0369  -6.3548  -1.9872   6.1359   6.6862   7.3414

          k = 0.1858 0.5363 0.0000 (  3816 PWs)   bands (ev):

   -17.9813 -17.0851 -13.1724  -5.6727  -2.7645   7.2675   7.9646   8.1797

          k = 0.2477 0.4290 0.0000 (  3807 PWs)   bands (ev):

   -19.0687 -15.2713 -13.7935  -6.3706  -1.8271   5.9951   6.4426   7.7618

          k = 0.2477 0.5005 0.0000 (  3824 PWs)   bands (ev):

   -17.8831 -16.3642 -14.3523  -5.2382  -3.0168   6.8006   7.7620   9.0103

          k = 0.3096 0.5363 0.0000 (  3789 PWs)   bands (ev):

   -16.8859 -16.8859 -15.0310  -4.1044  -4.1044   9.1170   9.1172   9.6129

     the Fermi energy is    -4.1044 ev

!    total energy              =     -22.76810232 Ry
     estimated scf accuracy    <          9.8E-11 Ry
     smearing contrib. (-TS)   =      -0.00005015 Ry
     internal energy E=F+TS    =     -22.76805217 Ry

     The total energy is F=E-TS. E is the sum of the following terms:
     one-electron contribution =    -399.38141331 Ry
     hartree contribution      =     200.34243137 Ry
     xc contribution           =      -7.07773585 Ry
     ewald contribution        =     183.34866562 Ry

     convergence has been achieved in  25 iterations

     Forces acting on atoms (cartesian axes, Ry/au):

     atom    1 type  1   force =    -0.00000000   -0.00000000    0.00000000
     atom    2 type  1   force =     0.00000000    0.00000000    0.00000000

     Total force =     0.000000     Total SCF correction =     0.000000


     Computing stress (Cartesian axis) and pressure

          total   stress  (Ry/bohr**3)                   (kbar)     P=       -5.46
   0.00001426  -0.00000000   0.00000000            2.10       -0.00        0.00
   0.00000000   0.00001426  -0.00000000            0.00        2.10       -0.00
   0.00000000  -0.00000000  -0.00013981            0.00       -0.00      -20.57

     Energy error            =      6.9E-04
     Gradient error          =      1.6E-26
     Cell gradient error     =      1.4E-05


     number of scf cycles    =   4
     number of bfgs steps    =   3

     enthalpy old            =     -22.7674111437 Ry
     enthalpy new            =     -22.7681023166 Ry

     CASE: enthalpy_new < enthalpy_old

     new trust radius        =       0.0048723427 bohr
     new conv_thr            =            1.0E-10 Ry

     new unit-cell volume =    739.08972 a.u.^3 (   109.52180 Ang^3 )
     density =      0.36421 g/cm^3

CELL_PARAMETERS (alat=  4.26000000)
   1.077571644   0.000000000   0.000000000
  -0.538785822   0.933204418   0.000000000
   0.000000000   0.000000000   9.507042254

ATOMIC_POSITIONS (crystal)
C             0.3333333333        0.6666666667        0.5000000000
C             0.6666666667        0.3333333333        0.5000000000



     Writing output data file ./work/LiC426.save/
     NEW-OLD atomic charge density approx. for the potential
     extrapolated charge    8.01431, renormalised to    8.00000

     total cpu time spent up to now is       19.0 secs

     Self-consistent Calculation

     iteration #  1     ecut=    50.00 Ry     beta= 0.70
     Davidson diagonalization with overlap
     c_bands:  1 eigenvalues not converged
     c_bands:  1 eigenvalues not converged
     c_bands:  1 eigenvalues not converged
     c_bands:  1 eigenvalues not converged
     c_bands:  1 eigenvalues not converged
     ethr =  1.00E-06,  avg # of iterations = 11.6

     total cpu time spent up to now is       19.2 secs

     total energy              =     -22.76798548 Ry
     estimated scf accuracy    <       0.00006511 Ry

     iteration #  2     ecut=    50.00 Ry     beta= 0.70
     Davidson diagonalization with overlap
     c_bands:  1 eigenvalues not converged
     c_bands:  1 eigenvalues not converged
     c_bands:  1 eigenvalues not converged
     c_bands:  1 eigenvalues not converged
     c_bands:  1 eigenvalues not converged
     c_bands:  1 eigenvalues not converged
     ethr =  8.14E-07,  avg # of iterations = 11.6

     total cpu time spent up to now is       19.5 secs

     total energy              =     -22.76811579 Ry
     estimated scf accuracy    <       0.00006105 Ry

     iteration #  3     ecut=    50.00 Ry     beta= 0.70
     Davidson diagonalization with overlap
     ethr =  7.63E-07,  avg # of iterations =  1.7

     total cpu time spent up to now is       19.6 secs

     total energy              =     -22.76811227 Ry
     estimated scf accuracy    <       0.00001394 Ry

     iteration #  4     ecut=    50.00 Ry     beta= 0.70
     Davidson diagonalization with overlap
     ethr =  1.74E-07,  avg # of iterations =  1.4

     total cpu time spent up to now is       19.7 secs

     total energy              =     -22.76811317 Ry
     estimated scf accuracy    <       0.00000252 Ry

     iteration #  5     ecut=    50.00 Ry     beta= 0.70
     Davidson diagonalization with overlap
     ethr =  3.15E-08,  avg # of iterations =  1.0

     total cpu time spent up to now is       19.9 secs

     total energy              =     -22.76811301 Ry
     estimated scf accuracy    <       0.00000257 Ry

     iteration #  6     ecut=    50.00 Ry     beta= 0.70
     Davidson diagonalization with overlap
     ethr =  3.15E-08,  avg # of iterations =  1.0

     total cpu time spent up to now is       20.0 secs

     total energy              =     -22.76811169 Ry
     estimated scf accuracy    <       0.00000216 Ry

     iteration #  7     ecut=    50.00 Ry     beta= 0.70
     Davidson diagonalization with overlap
     ethr =  2.70E-08,  avg # of iterations =  2.0

     total cpu time spent up to now is       20.1 secs

     total energy              =     -22.76811198 Ry
     estimated scf accuracy    <       0.00000021 Ry

     iteration #  8     ecut=    50.00 Ry     beta= 0.70
     Davidson diagonalization with overlap
     ethr =  2.68E-09,  avg # of iterations =  1.3

     total cpu time spent up to now is       20.2 secs

     total energy              =     -22.76811199 Ry
     estimated scf accuracy    <          7.3E-09 Ry

     iteration #  9     ecut=    50.00 Ry     beta= 0.70
     Davidson diagonalization with overlap
     ethr =  9.07E-11,  avg # of iterations =  2.1

     total cpu time spent up to now is       20.3 secs

     total energy              =     -22.76811199 Ry
     estimated scf accuracy    <          2.3E-09 Ry

     iteration # 10     ecut=    50.00 Ry     beta= 0.70
     Davidson diagonalization with overlap
     ethr =  2.87E-11,  avg # of iterations =  1.2

     total cpu time spent up to now is       20.4 secs

     total energy              =     -22.76811199 Ry
     estimated scf accuracy    <          2.0E-10 Ry

     iteration # 11     ecut=    50.00 Ry     beta= 0.70
     Davidson diagonalization with overlap
     ethr =  2.49E-12,  avg # of iterations =  2.4

     total cpu time spent up to now is       20.5 secs

     total energy              =     -22.76811199 Ry
     estimated scf accuracy    <          5.7E-10 Ry

     iteration # 12     ecut=    50.00 Ry     beta= 0.70
     Davidson diagonalization with overlap
     ethr =  2.49E-12,  avg # of iterations =  1.2

     total cpu time spent up to now is       20.7 secs

     total energy              =     -22.76811199 Ry
     estimated scf accuracy    <          2.2E-10 Ry

     iteration # 13     ecut=    50.00 Ry     beta= 0.70
     Davidson diagonalization with overlap
     ethr =  2.49E-12,  avg # of iterations =  1.0

     total cpu time spent up to now is       20.8 secs

     End of self-consistent calculation

          k = 0.0000 0.0000 0.0000 (  3823 PWs)   bands (ev):

   -24.0482 -12.0576  -7.1268  -7.1268  -0.9932  -0.2129   0.5636   0.9220

          k =-0.0000 0.0714 0.0000 (  3815 PWs)   bands (ev):

   -23.9402 -11.9272  -7.5600  -7.3591  -0.8463  -0.0638   0.7136   1.0714

          k =-0.0000 0.1429 0.0000 (  3789 PWs)   bands (ev):

   -23.6171 -11.5369  -8.7147  -7.9498  -0.4057   0.3832   1.1635   1.5194

          k =-0.0000 0.2143 0.0000 (  3774 PWs)   bands (ev):

   -23.0809 -10.8975 -10.3035  -8.6856   0.3284   1.1255   1.9132   2.2636

          k =-0.0000 0.2858 0.0000 (  3784 PWs)   bands (ev):

   -22.3363 -12.0926 -10.0204  -9.4019   1.3537   2.1380   2.9615   2.9630

          k =-0.0000 0.3572 0.0000 (  3798 PWs)   bands (ev):

   -21.3897 -13.9091 -10.0037  -8.9413   0.9911   2.6636   3.5235   4.0035

          k =-0.0000 0.4286 0.0000 (  3806 PWs)   bands (ev):

   -20.2547 -15.6605 -10.4235  -7.7480  -0.8465   3.7788   4.3116   5.1390

          k =-0.0000 0.5001 0.0000 (  3828 PWs)   bands (ev):

   -19.0015 -17.2343 -10.6427  -6.7454  -2.1915   3.6998   6.1554   7.0300

          k = 0.0619 0.1072 0.0000 (  3807 PWs)   bands (ev):

   -23.7248 -11.6671  -8.3014  -7.8283  -0.5525   0.2342   1.0135   1.3701

          k = 0.0619 0.1786 0.0000 (  3772 PWs)   bands (ev):

   -23.2950 -11.1514  -9.5765  -8.5849   0.0352   0.8293   1.6136   1.9667

          k = 0.0619 0.2500 0.0000 (  3777 PWs)   bands (ev):

   -22.6547 -11.2082 -10.3924  -9.3713   0.9156   1.7163   2.5132   2.8541

          k = 0.0619 0.3215 0.0000 (  3788 PWs)   bands (ev):

   -21.8090 -12.9826 -10.0601  -9.4091   1.8743   2.0856   2.9353   3.7099

          k = 0.0619 0.3929 0.0000 (  3813 PWs)   bands (ev):

   -20.7674 -14.7521 -10.5864  -8.2566  -0.0016   3.5327   4.3942   4.3951

          k = 0.0619 0.4643 0.0000 (  3811 PWs)   bands (ev):

   -19.5559 -16.4202 -10.9107  -7.0897  -1.6471   4.2152   5.3011   6.1435

          k = 0.0619 0.5358 0.0000 (  3826 PWs)   bands (ev):

   -18.5301 -17.6060 -11.0214  -6.4710  -2.4318   4.1683   7.2077   7.3629

          k = 0.1237 0.2143 0.0000 (  3775 PWs)   bands (ev):

   -22.7613 -10.7035 -10.5164  -9.5900   0.7697   1.5711   2.3638   2.7108

          k = 0.1237 0.2858 0.0000 (  3793 PWs)   bands (ev):

   -22.0200 -12.1409 -10.5324  -9.6471   1.7957   2.4451   2.6321   3.4136

          k = 0.1237 0.3572 0.0000 (  3800 PWs)   bands (ev):

   -21.0786 -13.7829 -11.2265  -8.5757   0.7097   3.1088   3.9315   4.7605

          k = 0.1237 0.4286 0.0000 (  3815 PWs)   bands (ev):

   -19.9529 -15.4458 -11.6869  -7.3823  -1.0030   4.6957   5.5192   5.5970

          k = 0.1237 0.5001 0.0000 (  3810 PWs)   bands (ev):

   -18.7152 -16.9684 -11.9157  -6.3557  -2.3059   5.4732   6.5710   7.2734

          k = 0.1856 0.3215 0.0000 (  3781 PWs)   bands (ev):

   -21.1829 -13.1692 -11.7529  -8.6835   1.0061   2.9645   3.7696   4.6130

          k = 0.1856 0.3929 0.0000 (  3794 PWs)   bands (ev):

   -20.1556 -14.4930 -12.5993  -7.5448  -0.5422   4.4143   5.1846   6.1090

          k = 0.1856 0.4643 0.0000 (  3808 PWs)   bands (ev):

   -18.9713 -15.9725 -13.0330  -6.3575  -1.9995   6.1234   6.6724   7.3033

          k = 0.1856 0.5358 0.0000 (  3816 PWs)   bands (ev):

   -17.9808 -17.0780 -13.1686  -5.6773  -2.7746   7.2289   7.3463   7.9479

          k = 0.2475 0.4286 0.0000 (  3807 PWs)   bands (ev):

   -19.0634 -15.2729 -13.7861  -6.3731  -1.8404   5.9829   6.4295   7.7058

          k = 0.2475 0.5001 0.0000 (  3824 PWs)   bands (ev):

   -17.8808 -16.3628 -14.3442  -5.2436  -3.0272   6.7873   7.7457   8.9733

          k = 0.3093 0.5358 0.0000 (  3789 PWs)   bands (ev):

   -16.8861 -16.8861 -15.0185  -4.1124  -4.1124   6.5750   9.0926   9.0926

     the Fermi energy is    -4.1124 ev

!    total energy              =     -22.76811199 Ry
     estimated scf accuracy    <          3.6E-11 Ry
     smearing contrib. (-TS)   =      -0.00005015 Ry
     internal energy E=F+TS    =     -22.76806184 Ry

     The total energy is F=E-TS. E is the sum of the following terms:
     one-electron contribution =    -398.65670871 Ry
     hartree contribution      =     199.97816523 Ry
     xc contribution           =      -7.07377762 Ry
     ewald contribution        =     182.98425926 Ry

     convergence has been achieved in  13 iterations

     Forces acting on atoms (cartesian axes, Ry/au):

     atom    1 type  1   force =     0.00000000    0.00000000    0.00000000
     atom    2 type  1   force =     0.00000000    0.00000000    0.00000000

     Total force =     0.000000     Total SCF correction =     0.000000


     Computing stress (Cartesian axis) and pressure

          total   stress  (Ry/bohr**3)                   (kbar)     P=       -6.82
   0.00000038  -0.00000000   0.00000000            0.06       -0.00        0.00
  -0.00000000   0.00000038   0.00000000           -0.00        0.06        0.00
   0.00000000   0.00000000  -0.00013986            0.00        0.00      -20.57

     Energy error            =      9.7E-06
     Gradient error          =      0.0E+00
     Cell gradient error     =      3.8E-07


     number of scf cycles    =   5
     number of bfgs steps    =   4

     enthalpy old            =     -22.7681023166 Ry
     enthalpy new            =     -22.7681119946 Ry

     CASE: enthalpy_new < enthalpy_old

     new trust radius        =       0.0001337176 bohr
     new conv_thr            =            1.0E-10 Ry

     new unit-cell volume =    739.12607 a.u.^3 (   109.52718 Ang^3 )
     density =      0.36419 g/cm^3

CELL_PARAMETERS (alat=  4.26000000)
   1.077598144   0.000000000   0.000000000
  -0.538799072   0.933227368   0.000000000
   0.000000000   0.000000000   9.507042254

ATOMIC_POSITIONS (crystal)
C             0.3333333333        0.6666666667        0.5000000000
C             0.6666666667        0.3333333333        0.5000000000



     Writing output data file ./work/LiC426.save/
     NEW-OLD atomic charge density approx. for the potential
     extrapolated charge    8.00039, renormalised to    8.00000

     total cpu time spent up to now is       20.8 secs

     Self-consistent Calculation

     iteration #  1     ecut=    50.00 Ry     beta= 0.70
     Davidson diagonalization with overlap
     ethr =  1.00E-06,  avg # of iterations =  1.3

     Threshold (ethr) on eigenvalues was too large:
     Diagonalizing with lowered threshold

     Davidson diagonalization with overlap
     ethr =  5.47E-10,  avg # of iterations =  1.8

     total cpu time spent up to now is       21.0 secs

     total energy              =     -22.76811191 Ry
     estimated scf accuracy    <       0.00000005 Ry

     iteration #  2     ecut=    50.00 Ry     beta= 0.70
     Davidson diagonalization with overlap
     ethr =  6.15E-10,  avg # of iterations =  3.0

     total cpu time spent up to now is       21.2 secs

     total energy              =     -22.76811200 Ry
     estimated scf accuracy    <       0.00000004 Ry

     iteration #  3     ecut=    50.00 Ry     beta= 0.70
     Davidson diagonalization with overlap
     ethr =  5.57E-10,  avg # of iterations =  1.0

     total cpu time spent up to now is       21.3 secs

     total energy              =     -22.76811200 Ry
     estimated scf accuracy    <       0.00000001 Ry

     iteration #  4     ecut=    50.00 Ry     beta= 0.70
     Davidson diagonalization with overlap
     ethr =  1.27E-10,  avg # of iterations =  1.9

     total cpu time spent up to now is       21.4 secs

     total energy              =     -22.76811200 Ry
     estimated scf accuracy    <          1.6E-09 Ry

     iteration #  5     ecut=    50.00 Ry     beta= 0.70
     Davidson diagonalization with overlap
     ethr =  1.99E-11,  avg # of iterations =  1.0

     total cpu time spent up to now is       21.5 secs

     total energy              =     -22.76811200 Ry
     estimated scf accuracy    <          1.6E-09 Ry

     iteration #  6     ecut=    50.00 Ry     beta= 0.70
     Davidson diagonalization with overlap
     ethr =  1.98E-11,  avg # of iterations =  1.0

     total cpu time spent up to now is       21.6 secs

     total energy              =     -22.76811200 Ry
     estimated scf accuracy    <          2.2E-09 Ry

     iteration #  7     ecut=    50.00 Ry     beta= 0.70
     Davidson diagonalization with overlap
     ethr =  1.98E-11,  avg # of iterations =  2.0

     total cpu time spent up to now is       21.7 secs

     total energy              =     -22.76811200 Ry
     estimated scf accuracy    <          1.0E-09 Ry

     iteration #  8     ecut=    50.00 Ry     beta= 0.70
[...]

          k = 0.1237 0.5001 0.0000 (  3810 PWs)   bands (ev):

   -18.7150 -16.9682 -11.9156  -6.3557  -2.3061   5.4722   6.5707   7.2730

          k = 0.1856 0.3215 0.0000 (  3781 PWs)   bands (ev):

   -21.1826 -13.1692 -11.7527  -8.6834   1.0056   2.9643   3.7693   4.6128

          k = 0.1856 0.3929 0.0000 (  3794 PWs)   bands (ev):

   -20.1554 -14.4930 -12.5992  -7.5448  -0.5426   4.4140   5.1843   6.1087

          k = 0.1856 0.4643 0.0000 (  3808 PWs)   bands (ev):

   -18.9711 -15.9724 -13.0329  -6.3576  -1.9998   6.1230   6.6720   7.3023

          k = 0.1856 0.5358 0.0000 (  3816 PWs)   bands (ev):

   -17.9807 -17.0778 -13.1684  -5.6774  -2.7748   7.2279   7.3459   7.9474

          k = 0.2475 0.4286 0.0000 (  3807 PWs)   bands (ev):

   -19.0632 -15.2728 -13.7858  -6.3731  -1.8407   5.9825   6.4291   7.7054

          k = 0.2475 0.5001 0.0000 (  3824 PWs)   bands (ev):

   -17.8807 -16.3627 -14.3440  -5.2437  -3.0274   6.7869   7.7453   8.9722

          k = 0.3093 0.5358 0.0000 (  3789 PWs)   bands (ev):

   -16.8861 -16.8861 -15.0181  -4.1126  -4.1126   6.5747   9.0919   9.0919

     the Fermi energy is    -4.1126 ev

!    total energy              =     -22.76811200 Ry
     estimated scf accuracy    <          4.3E-12 Ry
     smearing contrib. (-TS)   =      -0.00005015 Ry
     internal energy E=F+TS    =     -22.76806185 Ry

     The total energy is F=E-TS. E is the sum of the following terms:
     one-electron contribution =    -398.63683493 Ry
     hartree contribution      =     199.96816804 Ry
     xc contribution           =      -7.07366765 Ry
     ewald contribution        =     182.97427268 Ry

     convergence has been achieved in   8 iterations

     Forces acting on atoms (cartesian axes, Ry/au):

     atom    1 type  1   force =    -0.00000000   -0.00000000    0.00000000
     atom    2 type  1   force =     0.00000000    0.00000000    0.00000000

     Total force =     0.000000     Total SCF correction =     0.000000


     Computing stress (Cartesian axis) and pressure

          total   stress  (Ry/bohr**3)                   (kbar)     P=       -6.86
   0.00000000  -0.00000000   0.00000000            0.00       -0.00        0.00
  -0.00000000   0.00000000  -0.00000000           -0.00        0.00       -0.00
  -0.00000000   0.00000000  -0.00013988           -0.00        0.00      -20.58

     Energy error            =      7.0E-09
     Gradient error          =      1.6E-26
     Cell gradient error     =      4.2E-09


     bfgs converged in   6 scf cycles and   5 bfgs steps
     (criteria: energy <  1.0E-04 Ry, force <  1.0E-08Ry/Bohr, cell <  1.0E-03kbar)

     End of BFGS Geometry Optimization

     Final enthalpy =     -22.7681120016 Ry

     File ./work/LiC426.bfgs deleted, as requested
Begin final coordinates
     new unit-cell volume =    739.12607 a.u.^3 (   109.52718 Ang^3 )
     density =      0.36419 g/cm^3

CELL_PARAMETERS (alat=  4.26000000)
   1.077598144   0.000000000   0.000000000
  -0.538799072   0.933227368   0.000000000
   0.000000000   0.000000000   9.507042254

ATOMIC_POSITIONS (crystal)
C             0.3333333333        0.6666666667        0.5000000000
C             0.6666666667        0.3333333333        0.5000000000
End final coordinates



     Writing output data file ./work/LiC426.save/

     Final scf calculation at the relaxed structure.
     The G-vectors are recalculated for the final unit cell
     Results may differ from those at the preceding step.
 
     Parallelization info
     --------------------
     sticks:   dense  smooth     PW     G-vecs:    dense   smooth      PW
     Min           9       9      2                 1099     1099     170
     Max          10      10      3                 1120     1120     215
     Sum         295     295     91                35373    35373    6349
 


     bravais-lattice index     =            4
     lattice parameter (alat)  =       4.2600  a.u.
     unit-cell volume          =     739.1261 (a.u.)^3
     number of atoms/cell      =            2
     number of atomic types    =            1
     number of electrons       =         8.00
     number of Kohn-Sham states=            8
     kinetic-energy cutoff     =      50.0000  Ry
     charge density cutoff     =     200.0000  Ry
     scf convergence threshold =      1.0E-10
     mixing beta               =       0.7000
     number of iterations used =            8  plain     mixing
     press convergence thresh. =      1.0E-03
     Exchange-correlation= PBE
                           (   1   4   3   4   0   0   0)

     celldm(1)=   4.260000  celldm(2)=   0.000000  celldm(3)=   9.507042
     celldm(4)=   0.000000  celldm(5)=   0.000000  celldm(6)=   0.000000

     crystal axes: (cart. coord. in units of alat)
               a(1) = (   1.077598   0.000000   0.000000 )  
               a(2) = (  -0.538799   0.933227   0.000000 )  
               a(3) = (   0.000000   0.000000   9.507042 )  

     reciprocal axes: (cart. coord. in units 2 pi/alat)
               b(1) = (  0.927990  0.535775  0.000000 )  
               b(2) = ( -0.000000  1.071550  0.000000 )  
               b(3) = (  0.000000  0.000000  0.105185 )  


     PseudoPot. # 1 for C  read from file:
     /home/yhkim/qe-6.7/pseudo/ONCV1/1.2/C_ONCV_PBE-1.2.upf
     MD5 check sum: 1a5f83a7b1f58d24996abe00ed223ac6
     Pseudo is Norm-conserving, Zval =  4.0
     Generated using ONCVPSP code by D. R. Hamann
     Using radial grid of  602 points,  4 beta functions with: 
                l(1) =   0
                l(2) =   0
                l(3) =   1
                l(4) =   1

     atomic species   valence    mass     pseudopotential
        C              4.00    12.01070     C ( 1.00)

     24 Sym. Ops., with inversion, found



   Cartesian axes

     site n.     atom                  positions (alat units)
         1           C   tau(   1) = (  -0.0000000   0.6221516   4.7535211  )
         2           C   tau(   2) = (   0.5387991   0.3110758   4.7535211  )

     number of k points=    27  Methfessel-Paxton smearing, width (Ry)=  0.0100
                       cart. coord. in units 2pi/alat
        k(    1) = (   0.0000000   0.0000000   0.0000000), wk =   0.0088889
        k(    2) = (  -0.0000000   0.0714367   0.0000000), wk =   0.0533333
        k(    3) = (  -0.0000000   0.1428734   0.0000000), wk =   0.0533333
        k(    4) = (  -0.0000000   0.2143100   0.0000000), wk =   0.0533333
        k(    5) = (  -0.0000000   0.2857467   0.0000000), wk =   0.0533333
        k(    6) = (  -0.0000000   0.3571834   0.0000000), wk =   0.0533333
        k(    7) = (  -0.0000000   0.4286201   0.0000000), wk =   0.0533333
        k(    8) = (  -0.0000000   0.5000568   0.0000000), wk =   0.0533333
        k(    9) = (   0.0618660   0.1071550   0.0000000), wk =   0.0533333
        k(   10) = (   0.0618660   0.1785917   0.0000000), wk =   0.1066667
        k(   11) = (   0.0618660   0.2500284   0.0000000), wk =   0.1066667
        k(   12) = (   0.0618660   0.3214651   0.0000000), wk =   0.1066667
        k(   13) = (   0.0618660   0.3929018   0.0000000), wk =   0.1066667
        k(   14) = (   0.0618660   0.4643384   0.0000000), wk =   0.1066667
        k(   15) = (   0.0618660   0.5357751   0.0000000), wk =   0.0533333
        k(   16) = (   0.1237320   0.2143100   0.0000000), wk =   0.0533333
        k(   17) = (   0.1237320   0.2857467   0.0000000), wk =   0.1066667
        k(   18) = (   0.1237320   0.3571834   0.0000000), wk =   0.1066667
        k(   19) = (   0.1237320   0.4286201   0.0000000), wk =   0.1066667
        k(   20) = (   0.1237320   0.5000568   0.0000000), wk =   0.1066667
        k(   21) = (   0.1855979   0.3214651   0.0000000), wk =   0.0533333
        k(   22) = (   0.1855979   0.3929018   0.0000000), wk =   0.1066667
        k(   23) = (   0.1855979   0.4643384   0.0000000), wk =   0.1066667
        k(   24) = (   0.1855979   0.5357751   0.0000000), wk =   0.0533333
        k(   25) = (   0.2474639   0.4286201   0.0000000), wk =   0.0533333
        k(   26) = (   0.2474639   0.5000568   0.0000000), wk =   0.1066667
        k(   27) = (   0.3093299   0.5357751   0.0000000), wk =   0.0177778

     Dense  grid:    35373 G-vectors     FFT dimensions: (  24,  24, 192)

     Estimated max dynamical RAM per process >       1.93 MB

     Estimated total dynamical RAM >      61.91 MB
 ----2D----2D----2D----2D----2D----2D----2D----2D----2D----2D----2D----2D
  The code is running with the 2D cutoff
  Please refer to:
  Sohier, T., Calandra, M., & Mauri, F. (2017), 
  Density functional perturbation theory for gated two-dimensional heterostructu
 res:
  Theoretical developments and application to flexural phonons in graphene.
  Physical Review B, 96(7), 75448. https://doi.org/10.1103/PhysRevB.96.075448
 ----2D----2D----2D----2D----2D----2D----2D----2D----2D----2D----2D----2D

     Initial potential from superposition of free atoms

     starting charge    7.98607, renormalised to    8.00000

     negative rho (up, down):  1.113E-04 0.000E+00
     Starting wfcs are random

     total cpu time spent up to now is       22.0 secs

     Self-consistent Calculation

     iteration #  1     ecut=    50.00 Ry     beta= 0.70
     Davidson diagonalization with overlap
     c_bands:  1 eigenvalues not converged
     c_bands:  2 eigenvalues not converged
     c_bands:  3 eigenvalues not converged
     c_bands:  4 eigenvalues not converged
     c_bands:  4 eigenvalues not converged
     c_bands:  4 eigenvalues not converged
     c_bands:  3 eigenvalues not converged
     c_bands:  2 eigenvalues not converged
     c_bands:  3 eigenvalues not converged
     c_bands:  5 eigenvalues not converged
     c_bands:  5 eigenvalues not converged
     c_bands:  4 eigenvalues not converged
     c_bands:  3 eigenvalues not converged
     c_bands:  2 eigenvalues not converged
     c_bands:  2 eigenvalues not converged
     c_bands:  5 eigenvalues not converged
     c_bands:  4 eigenvalues not converged
     c_bands:  3 eigenvalues not converged
     c_bands:  3 eigenvalues not converged
     c_bands:  3 eigenvalues not converged
     c_bands:  4 eigenvalues not converged
     c_bands:  4 eigenvalues not converged
     c_bands:  3 eigenvalues not converged
     c_bands:  3 eigenvalues not converged
     c_bands:  3 eigenvalues not converged
     c_bands:  3 eigenvalues not converged
     c_bands:  2 eigenvalues not converged
     ethr =  1.00E-06,  avg # of iterations = 23.0

     negative rho (up, down):  2.215E-05 0.000E+00

     total cpu time spent up to now is       22.7 secs

     total energy              =     -22.75527781 Ry
     estimated scf accuracy    <       0.21564796 Ry

     iteration #  2     ecut=    50.00 Ry     beta= 0.70
     Davidson diagonalization with overlap
     ethr =  2.70E-03,  avg # of iterations =  2.3

     negative rho (up, down):  2.718E-06 0.000E+00

     total cpu time spent up to now is       22.9 secs

     total energy              =     -22.78806583 Ry
     estimated scf accuracy    <       0.00239590 Ry

     iteration #  3     ecut=    50.00 Ry     beta= 0.70
     Davidson diagonalization with overlap
     c_bands:  1 eigenvalues not converged
     ethr =  2.99E-05,  avg # of iterations =  9.3

     total cpu time spent up to now is       23.1 secs

     total energy              =     -22.78849012 Ry
     estimated scf accuracy    <       0.00017692 Ry

     iteration #  4     ecut=    50.00 Ry     beta= 0.70
     Davidson diagonalization with overlap
     c_bands:  1 eigenvalues not converged
     ethr =  2.21E-06,  avg # of iterations =  5.9

     total cpu time spent up to now is       23.2 secs

     total energy              =     -22.78850397 Ry
     estimated scf accuracy    <       0.00000124 Ry

     iteration #  5     ecut=    50.00 Ry     beta= 0.70
     Davidson diagonalization with overlap
     ethr =  1.54E-08,  avg # of iterations =  3.7

     total cpu time spent up to now is       23.4 secs

     total energy              =     -22.78850537 Ry
     estimated scf accuracy    <       0.00000004 Ry

     iteration #  6     ecut=    50.00 Ry     beta= 0.70
     Davidson diagonalization with overlap
     ethr =  4.83E-10,  avg # of iterations =  2.4

     total cpu time spent up to now is       23.5 secs

     total energy              =     -22.78850538 Ry
     estimated scf accuracy    <          8.9E-10 Ry

     iteration #  7     ecut=    50.00 Ry     beta= 0.70
     Davidson diagonalization with overlap
     ethr =  1.11E-11,  avg # of iterations =  3.1

     total cpu time spent up to now is       23.6 secs

     End of self-consistent calculation

          k = 0.0000 0.0000 0.0000 (  4375 PWs)   bands (ev):

   -24.0205 -12.0471  -7.1756  -7.1756  -0.9888  -0.2044   0.5813   0.9368

          k =-0.0000 0.0714 0.0000 (  4391 PWs)   bands (ev):

   -23.9128 -11.9176  -7.6072  -7.4084  -0.8420  -0.0554   0.7312   1.0861

          k =-0.0000 0.1429 0.0000 (  4363 PWs)   bands (ev):

   -23.5904 -11.5289  -8.7494  -7.9950  -0.4016   0.3913   1.1811   1.5340

          k =-0.0000 0.2143 0.0000 (  4387 PWs)   bands (ev):

   -23.0559 -10.8878 -10.3328  -8.7321   0.3320   1.1335   1.9307   2.2782

          k =-0.0000 0.2857 0.0000 (  4413 PWs)   bands (ev):

   -22.3133 -12.1064 -10.0118  -9.4474   1.3566   2.1448   2.9567   2.9789

          k =-0.0000 0.3572 0.0000 (  4433 PWs)   bands (ev):

   -21.3697 -13.9154 -10.0417  -8.9345   0.9862   2.6652   3.5307   4.0099

          k =-0.0000 0.4286 0.0000 (  4439 PWs)   bands (ev):

   -20.2388 -15.6601 -10.4603  -7.7418  -0.8475   3.7863   4.3160   5.1454

          k =-0.0000 0.5001 0.0000 (  4433 PWs)   bands (ev):

   -18.9842 -17.2313 -10.6758  -6.7392  -2.1907   3.7141   6.1560   7.0352

          k = 0.0619 0.1072 0.0000 (  4365 PWs)   bands (ev):

   -23.6976 -11.6576  -8.3374  -7.8737  -0.5483   0.2425   1.0312   1.3847

          k = 0.0619 0.1786 0.0000 (  4381 PWs)   bands (ev):

   -23.2694 -11.1432  -9.6101  -8.6289   0.0390   0.8373   1.6311   1.9812

          k = 0.0619 0.2500 0.0000 (  4399 PWs)   bands (ev):

   -22.6308 -11.2285 -10.3838  -9.4149   0.9189   1.7240   2.5306   2.8684

          k = 0.0619 0.3215 0.0000 (  4428 PWs)   bands (ev):

   -21.7878 -12.9902 -10.0996  -9.4023   1.8660   2.0880   2.9425   3.7267

          k = 0.0619 0.3929 0.0000 (  4436 PWs)   bands (ev):

   -20.7498 -14.7524 -10.6201  -8.2505  -0.0027   3.5331   4.3997   4.4019

          k = 0.0619 0.4643 0.0000 (  4441 PWs)   bands (ev):

   -19.5423 -16.4187 -10.9428  -7.0847  -1.6467   4.2222   5.3025   6.1490

          k = 0.0619 0.5358 0.0000 (  4412 PWs)   bands (ev):

   -18.5092 -17.6072 -11.0515  -6.4655  -2.4290   4.1787   7.2075   7.3610

          k = 0.1237 0.2143 0.0000 (  4395 PWs)   bands (ev):

   -22.7373 -10.7258 -10.5081  -9.6308   0.7731   1.5789   2.3812   2.7255

          k = 0.1237 0.2857 0.0000 (  4408 PWs)   bands (ev):

   -21.9982 -12.1507 -10.5670  -9.6401   1.7985   2.4409   2.6379   3.4309

          k = 0.1237 0.3572 0.0000 (  4427 PWs)   bands (ev):

   -21.0603 -13.7855 -11.2582  -8.5688   0.7050   3.1104   3.9382   4.7773

          k = 0.1237 0.4286 0.0000 (  4433 PWs)   bands (ev):

   -19.9391 -15.4433 -11.7140  -7.3767  -1.0033   4.6949   5.5248   5.5927

          k = 0.1237 0.5001 0.0000 (  4421 PWs)   bands (ev):

   -18.7011 -16.9676 -11.9413  -6.3518  -2.3043   5.4702   6.5704   7.2765

          k = 0.1856 0.3215 0.0000 (  4413 PWs)   bands (ev):

   -21.1645 -13.1709 -11.7868  -8.6770   0.9977   2.9663   3.7762   4.6302

          k = 0.1856 0.3929 0.0000 (  4419 PWs)   bands (ev):

   -20.1416 -14.4897 -12.6270  -7.5390  -0.5471   4.4145   5.1900   6.1259

          k = 0.1856 0.4643 0.0000 (  4418 PWs)   bands (ev):

   -18.9599 -15.9677 -13.0561  -6.3529  -2.0013   6.1211   6.6753   7.2839

          k = 0.1856 0.5358 0.0000 (  4419 PWs)   bands (ev):

   -17.9640 -17.0792 -13.1891  -5.6734  -2.7755   7.2091   7.3483   7.9427

          k = 0.2475 0.4286 0.0000 (  4417 PWs)   bands (ev):

   -19.0537 -15.2651 -13.8086  -6.3680  -1.8427   5.9806   6.4326   7.7272

          k = 0.2475 0.5001 0.0000 (  4409 PWs)   bands (ev):

   -17.8696 -16.3555 -14.3625  -5.2407  -3.0267   6.7917   7.7393   8.9454

          k = 0.3093 0.5358 0.0000 (  4395 PWs)   bands (ev):

   -16.8770 -16.8770 -15.0444  -4.1118  -4.1118   6.5805   9.0687   9.0695

     the Fermi energy is    -4.1118 ev

!    total energy              =     -22.78850538 Ry
     estimated scf accuracy    <          1.3E-11 Ry
     smearing contrib. (-TS)   =      -0.00005015 Ry
     internal energy E=F+TS    =     -22.78845523 Ry

     The total energy is F=E-TS. E is the sum of the following terms:
     one-electron contribution =    -398.67458075 Ry
     hartree contribution      =     199.98665930 Ry
     xc contribution           =      -7.07480665 Ry
     ewald contribution        =     182.97427287 Ry

     convergence has been achieved in   7 iterations

     Forces acting on atoms (cartesian axes, Ry/au):

     atom    1 type  1   force =     0.00000000    0.00000000    0.00000000
     atom    2 type  1   force =     0.00000000    0.00000000    0.00000000

     Total force =     0.000000     Total SCF correction =     0.000000


     Computing stress (Cartesian axis) and pressure

          total   stress  (Ry/bohr**3)                   (kbar)     P=        3.91
   0.00009576  -0.00000000  -0.00000000           14.09       -0.00       -0.00
  -0.00000000   0.00009576   0.00000000           -0.00       14.09        0.00
  -0.00000000   0.00000000  -0.00011180           -0.00        0.00      -16.45


     Writing output data file ./work/LiC426.save/
 
     init_run     :      0.14s CPU      0.16s WALL (       2 calls)
     electrons    :     21.38s CPU     23.13s WALL (       7 calls)
     update_pot   :      0.05s CPU      0.06s WALL (       5 calls)
     forces       :      0.05s CPU      0.05s WALL (       7 calls)
     stress       :      0.14s CPU      0.15s WALL (       7 calls)

     Called by init_run:
     wfcinit      :      0.10s CPU      0.11s WALL (       2 calls)
     potinit      :      0.02s CPU      0.03s WALL (       2 calls)
     hinit0       :      0.01s CPU      0.01s WALL (       2 calls)

     Called by electrons:
     c_bands      :     18.98s CPU     20.39s WALL (     120 calls)
     sum_band     :      2.14s CPU      2.31s WALL (     120 calls)
     v_of_rho     :      0.19s CPU      0.22s WALL (     126 calls)
     mix_rho      :      0.05s CPU      0.05s WALL (     120 calls)

     Called by c_bands:
     init_us_2    :      0.11s CPU      0.12s WALL (    6912 calls)
     cegterg      :     18.65s CPU     20.01s WALL (    3302 calls)

     Called by *egterg:
     cdiaghg      :      1.69s CPU      1.81s WALL (   18896 calls)
     h_psi        :     15.74s CPU     16.89s WALL (   19117 calls)
     g_psi        :      0.04s CPU      0.04s WALL (   15761 calls)

     Called by h_psi:
     h_psi:calbec :      0.50s CPU      0.54s WALL (   19117 calls)
     vloc_psi     :     14.94s CPU     16.03s WALL (   19117 calls)
     add_vuspsi   :      0.14s CPU      0.16s WALL (   19117 calls)

     General routines
     calbec       :      0.50s CPU      0.54s WALL (   20062 calls)
     fft          :      0.17s CPU      0.19s WALL (    1315 calls)
     ffts         :      0.01s CPU      0.01s WALL (     120 calls)
     fftw         :     16.16s CPU     17.35s WALL (  225846 calls)
 
     Parallel routines
     fft_scatt_xy :      0.85s CPU      0.91s WALL (  227281 calls)
     fft_scatt_yz :      6.80s CPU      7.29s WALL (  227281 calls)
 
     PWSCF        :     21.84s CPU     23.86s WALL

 
   This run was terminated on:  14: 7:36  19Jan2024            

=------------------------------------------------------------------------------=
   JOB DONE.
=------------------------------------------------------------------------------=
