
     Program PWSCF v.6.7MaX starts on 19Jan2024 at 14:12:10 

     This program is part of the open-source Quantum ESPRESSO suite
     for quantum simulation of materials; please cite
         "P. Giannozzi et al., J. Phys.:Condens. Matter 21 395502 (2009);
         "P. Giannozzi et al., J. Phys.:Condens. Matter 29 465901 (2017);
          URL http://www.quantum-espresso.org", 
     in publications or presentations arising from this work. More details at
     http://www.quantum-espresso.org/quote

     Parallel version (MPI), running on    32 processors

     MPI processes distributed on     1 nodes
     R & G space division:  proc/nbgrp/npool/nimage =      32
     Waiting for input...
     Reading input from standard input

     Current dimensions of program PWSCF are:
     Max number of different atomic species (ntypx) = 10
     Max number of k-points (npk) =  40000
     Max angular momentum in pseudopotentials (lmaxx) =  3
     Message from routine read_pp_mesh:
     mesh size missing, using the one in header

     Subspace diagonalization in iterative solution of the eigenvalue problem:
     a serial algorithm will be used

 
     Parallelization info
     --------------------
     sticks:   dense  smooth     PW     G-vecs:    dense   smooth      PW
     Min           8       8      2                  998      998     164
     Max          11      11      3                 1010     1010     205
     Sum         265     265     85                32163    32163    5971
 


     bravais-lattice index     =            4
     lattice parameter (alat)  =       4.3900  a.u.
     unit-cell volume          =     675.9502 (a.u.)^3
     number of atoms/cell      =            2
     number of atomic types    =            1
     number of electrons       =         8.00
     number of Kohn-Sham states=            8
     kinetic-energy cutoff     =      50.0000  Ry
     charge density cutoff     =     200.0000  Ry
     scf convergence threshold =      1.0E-08
     mixing beta               =       0.7000
     number of iterations used =            8  plain     mixing
     energy convergence thresh.=      1.0E-04
     force convergence thresh. =      1.0E-08
     press convergence thresh. =      1.0E-03
     Exchange-correlation= PBE
                           (   1   4   3   4   0   0   0)
     nstep                     =           50


     celldm(1)=   4.390000  celldm(2)=   0.000000  celldm(3)=   9.225513
     celldm(4)=   0.000000  celldm(5)=   0.000000  celldm(6)=   0.000000

     crystal axes: (cart. coord. in units of alat)
               a(1) = (   1.000000   0.000000   0.000000 )  
               a(2) = (  -0.500000   0.866025   0.000000 )  
               a(3) = (   0.000000   0.000000   9.225513 )  

     reciprocal axes: (cart. coord. in units 2 pi/alat)
               b(1) = (  1.000000  0.577350  0.000000 )  
               b(2) = (  0.000000  1.154701  0.000000 )  
               b(3) = (  0.000000  0.000000  0.108395 )  


     PseudoPot. # 1 for C  read from file:
     /home/yhkim/qe-6.7/pseudo/ONCV1/1.2/C_ONCV_PBE-1.2.upf
     MD5 check sum: 1a5f83a7b1f58d24996abe00ed223ac6
     Pseudo is Norm-conserving, Zval =  4.0
     Generated using ONCVPSP code by D. R. Hamann
     Using radial grid of  602 points,  4 beta functions with: 
                l(1) =   0
                l(2) =   0
                l(3) =   1
                l(4) =   1

     atomic species   valence    mass     pseudopotential
        C              4.00    12.01070     C ( 1.00)

     24 Sym. Ops., with inversion, found



   Cartesian axes

     site n.     atom                  positions (alat units)
         1           C   tau(   1) = (  -0.0000000   0.5773503   4.6127563  )
         2           C   tau(   2) = (   0.5000000   0.2886751   4.6127563  )

     number of k points=    27  Methfessel-Paxton smearing, width (Ry)=  0.0100
                       cart. coord. in units 2pi/alat
        k(    1) = (   0.0000000   0.0000000   0.0000000), wk =   0.0088889
        k(    2) = (   0.0000000   0.0769800   0.0000000), wk =   0.0533333
        k(    3) = (   0.0000000   0.1539601   0.0000000), wk =   0.0533333
        k(    4) = (   0.0000000   0.2309401   0.0000000), wk =   0.0533333
        k(    5) = (   0.0000000   0.3079201   0.0000000), wk =   0.0533333
        k(    6) = (   0.0000000   0.3849002   0.0000000), wk =   0.0533333
        k(    7) = (   0.0000000   0.4618802   0.0000000), wk =   0.0533333
        k(    8) = (   0.0000000   0.5388603   0.0000000), wk =   0.0533333
        k(    9) = (   0.0666667   0.1154701   0.0000000), wk =   0.0533333
        k(   10) = (   0.0666667   0.1924501   0.0000000), wk =   0.1066667
        k(   11) = (   0.0666667   0.2694301   0.0000000), wk =   0.1066667
        k(   12) = (   0.0666667   0.3464102   0.0000000), wk =   0.1066667
        k(   13) = (   0.0666667   0.4233902   0.0000000), wk =   0.1066667
        k(   14) = (   0.0666667   0.5003702   0.0000000), wk =   0.1066667
        k(   15) = (   0.0666667   0.5773503   0.0000000), wk =   0.0533333
        k(   16) = (   0.1333333   0.2309401   0.0000000), wk =   0.0533333
        k(   17) = (   0.1333333   0.3079201   0.0000000), wk =   0.1066667
        k(   18) = (   0.1333333   0.3849002   0.0000000), wk =   0.1066667
        k(   19) = (   0.1333333   0.4618802   0.0000000), wk =   0.1066667
        k(   20) = (   0.1333333   0.5388603   0.0000000), wk =   0.1066667
        k(   21) = (   0.2000000   0.3464102   0.0000000), wk =   0.0533333
        k(   22) = (   0.2000000   0.4233902   0.0000000), wk =   0.1066667
        k(   23) = (   0.2000000   0.5003702   0.0000000), wk =   0.1066667
        k(   24) = (   0.2000000   0.5773503   0.0000000), wk =   0.0533333
        k(   25) = (   0.2666667   0.4618802   0.0000000), wk =   0.0533333
        k(   26) = (   0.2666667   0.5388603   0.0000000), wk =   0.1066667
        k(   27) = (   0.3333333   0.5773503   0.0000000), wk =   0.0177778

     Dense  grid:    32163 G-vectors     FFT dimensions: (  20,  20, 192)

     Estimated max dynamical RAM per process >       1.77 MB

     Estimated total dynamical RAM >      56.66 MB
 ----2D----2D----2D----2D----2D----2D----2D----2D----2D----2D----2D----2D
  The code is running with the 2D cutoff
  Please refer to:
  Sohier, T., Calandra, M., & Mauri, F. (2017), 
  Density functional perturbation theory for gated two-dimensional heterostructu
 res:
  Theoretical developments and application to flexural phonons in graphene.
  Physical Review B, 96(7), 75448. https://doi.org/10.1103/PhysRevB.96.075448
 ----2D----2D----2D----2D----2D----2D----2D----2D----2D----2D----2D----2D

     Initial potential from superposition of free atoms

     starting charge    7.98607, renormalised to    8.00000

     negative rho (up, down):  1.077E-04 0.000E+00
     Starting wfcs are random

     total cpu time spent up to now is        0.1 secs

     Self-consistent Calculation

     iteration #  1     ecut=    50.00 Ry     beta= 0.70
     Davidson diagonalization with overlap
     ethr =  1.00E-02,  avg # of iterations = 12.3

     negative rho (up, down):  9.640E-08 0.000E+00

     total cpu time spent up to now is        0.6 secs

     total energy              =     -22.70598600 Ry
     estimated scf accuracy    <       0.27545004 Ry

     iteration #  2     ecut=    50.00 Ry     beta= 0.70
     Davidson diagonalization with overlap
     ethr =  3.44E-03,  avg # of iterations =  2.2

     total cpu time spent up to now is        0.7 secs

     total energy              =     -22.74784907 Ry
     estimated scf accuracy    <       0.00234363 Ry

     iteration #  3     ecut=    50.00 Ry     beta= 0.70
     Davidson diagonalization with overlap
     ethr =  2.93E-05,  avg # of iterations = 11.0

     total cpu time spent up to now is        1.0 secs

     total energy              =     -22.74910361 Ry
     estimated scf accuracy    <       0.00015796 Ry

     iteration #  4     ecut=    50.00 Ry     beta= 0.70
     Davidson diagonalization with overlap
     ethr =  1.97E-06,  avg # of iterations =  5.7

     total cpu time spent up to now is        1.2 secs

     total energy              =     -22.74913961 Ry
     estimated scf accuracy    <       0.00000144 Ry

     iteration #  5     ecut=    50.00 Ry     beta= 0.70
     Davidson diagonalization with overlap
     ethr =  1.80E-08,  avg # of iterations =  3.9

     total cpu time spent up to now is        1.3 secs

     total energy              =     -22.74914255 Ry
     estimated scf accuracy    <       0.00000013 Ry

     iteration #  6     ecut=    50.00 Ry     beta= 0.70
     Davidson diagonalization with overlap
     ethr =  1.66E-09,  avg # of iterations =  2.0

     total cpu time spent up to now is        1.5 secs

     End of self-consistent calculation

          k = 0.0000 0.0000 0.0000 (  3955 PWs)   bands (ev):

   -24.7331 -12.6121  -6.6748  -1.0139  -0.2078   0.5703   0.9260   2.2514

          k = 0.0000 0.0770 0.0000 (  3959 PWs)   bands (ev):

   -24.6171 -12.4674  -7.1325  -6.9433  -0.8538  -0.0445   0.7343   1.0897

          k = 0.0000 0.1540 0.0000 (  3993 PWs)   bands (ev):

   -24.2697 -12.0353  -8.3652  -7.6203  -0.3731   0.4450   1.2262   1.5804

          k = 0.0000 0.2309 0.0000 (  4013 PWs)   bands (ev):

   -23.6931 -11.3221 -10.0585  -8.4581   0.4284   1.2590   2.0461   2.3964

          k = 0.0000 0.3079 0.0000 (  4009 PWs)   bands (ev):

   -22.8909 -11.9620 -10.3432  -9.2663   1.5489   2.3845   3.1935   3.5135

          k = 0.0000 0.3849 0.0000 (  4034 PWs)   bands (ev):

   -21.8701 -13.9098  -9.9335  -9.1357   1.9452   2.9835   3.9007   4.6646

          k = 0.0000 0.4619 0.0000 (  4044 PWs)   bands (ev):

   -20.6404 -15.7982 -10.4013  -7.7904  -0.1501   4.7109   5.6508   5.6662

          k = 0.0000 0.5389 0.0000 (  4046 PWs)   bands (ev):

   -19.2247 -17.5536 -10.6423  -6.6432  -1.6998   5.5261   6.8174   7.7497

          k = 0.0667 0.1155 0.0000 (  3979 PWs)   bands (ev):

   -24.3854 -12.1790  -7.9159  -7.4781  -0.5333   0.2819   1.0622   1.4169

          k = 0.0667 0.1925 0.0000 (  4005 PWs)   bands (ev):

   -23.9234 -11.6059  -9.2747  -8.3392   0.1084   0.9339   1.7183   2.0706

          k = 0.0667 0.2694 0.0000 (  4005 PWs)   bands (ev):

   -23.2341 -11.0109 -10.7585  -9.2204   1.0703   1.9077   2.7023   3.0468

          k = 0.0667 0.3464 0.0000 (  4008 PWs)   bands (ev):

   -22.3224 -12.9059  -9.9836  -9.6610   2.3493   2.8951   3.3313   4.0135

          k = 0.0667 0.4234 0.0000 (  4033 PWs)   bands (ev):

   -21.1977 -14.8102 -10.5626  -8.3660   0.8325   3.9387   4.8510   5.6417

          k = 0.0667 0.5004 0.0000 (  4041 PWs)   bands (ev):

   -19.8726 -16.6283 -10.9206  -7.0427  -1.0553   5.7686   6.1590   6.7745

          k = 0.0667 0.5774 0.0000 (  4049 PWs)   bands (ev):

   -18.5535 -18.1157 -11.0428  -6.3293  -1.9654   6.0245   7.9764   8.1211

          k = 0.1333 0.2309 0.0000 (  4019 PWs)   bands (ev):

   -23.3488 -10.8987 -10.4377  -9.4794   0.9112   1.7470   2.5389   2.8862

          k = 0.1333 0.3079 0.0000 (  4014 PWs)   bands (ev):

   -22.5500 -11.9655 -10.5121  -9.9274   2.0328   2.8746   3.6884   3.7098

          k = 0.1333 0.3849 0.0000 (  4022 PWs)   bands (ev):

   -21.5345 -13.7415 -11.2564  -8.7263   1.6815   3.4687   4.3421   5.1623

          k = 0.1333 0.4619 0.0000 (  4053 PWs)   bands (ev):

   -20.3149 -15.5490 -11.7476  -7.3812  -0.2780   5.2099   6.0911   6.9556

          k = 0.1333 0.5389 0.0000 (  4065 PWs)   bands (ev):

   -18.9180 -17.2588 -11.9934  -6.2096  -1.7798   7.1875   7.4573   8.0545

          k = 0.2000 0.3464 0.0000 (  4023 PWs)   bands (ev):

   -21.6479 -13.0006 -11.8977  -8.8484   2.0465   3.3111   4.1613   4.9995

          k = 0.2000 0.4234 0.0000 (  4060 PWs)   bands (ev):

   -20.5380 -14.4467 -12.7887  -7.5692   0.2896   4.8974   5.7234   6.6373

          k = 0.2000 0.5004 0.0000 (  4076 PWs)   bands (ev):

   -19.2390 -16.0985 -13.2186  -6.2265  -1.3724   6.7748   7.3922   8.6220

          k = 0.2000 0.5774 0.0000 (  4071 PWs)   bands (ev):

   -17.9889 -17.4818 -13.3523  -5.4452  -2.2659   8.1653   8.8123   8.9602

          k = 0.2667 0.4619 0.0000 (  4091 PWs)   bands (ev):

   -19.3487 -15.1882 -14.1677  -6.2501  -1.1604   6.6180   7.1160   8.4071

          k = 0.2667 0.5389 0.0000 (  4105 PWs)   bands (ev):

   -18.0123 -16.4548 -14.7308  -4.9710  -2.4987   7.4838   8.5777  10.0581

          k = 0.3333 0.5774 0.0000 (  4095 PWs)   bands (ev):

   -16.8638 -16.8638 -15.6936  -3.7019  -3.7019   7.2140  10.2774  10.2782

     the Fermi energy is    -3.6595 ev

!    total energy              =     -22.74914259 Ry
     estimated scf accuracy    <          7.4E-09 Ry
     smearing contrib. (-TS)   =      -0.00003668 Ry
     internal energy E=F+TS    =     -22.74910591 Ry

     The total energy is F=E-TS. E is the sum of the following terms:
     one-electron contribution =    -436.42525932 Ry
     hartree contribution      =     218.95913933 Ry
     xc contribution           =      -7.27526012 Ry
     ewald contribution        =     201.99227420 Ry

     convergence has been achieved in   6 iterations

     Forces acting on atoms (cartesian axes, Ry/au):

     atom    1 type  1   force =     0.00000000    0.00000000    0.00000000
     atom    2 type  1   force =     0.00000000    0.00000000    0.00000000

     Total force =     0.000000     Total SCF correction =     0.000000


     Computing stress (Cartesian axis) and pressure

          total   stress  (Ry/bohr**3)                   (kbar)     P=       78.27
   0.00086065   0.00000000   0.00000000          126.61        0.00        0.00
   0.00000000   0.00086065   0.00000000            0.00      126.61        0.00
   0.00000000  -0.00000000  -0.00012508            0.00       -0.00      -18.40


     BFGS Geometry Optimization
     Energy error            =      0.0E+00
     Gradient error          =      0.0E+00
     Cell gradient error     =      8.6E-04


     number of scf cycles    =   1
     number of bfgs steps    =   0

     enthalpy new            =     -22.7491425861 Ry

     new trust radius        =       0.1118801173 bohr
     new conv_thr            =       0.0000000100 Ry

     new unit-cell volume =    705.35088 a.u.^3 (   104.52222 Ang^3 )
     density =      0.38163 g/cm^3

CELL_PARAMETERS (alat=  4.39000000)
   1.021516200   0.000000000   0.000000000
  -0.510758100   0.884658980   0.000000000
   0.000000000   0.000000000   9.225512528

ATOMIC_POSITIONS (crystal)
C             0.3333333333        0.6666666667        0.5000000000
C             0.6666666667        0.3333333333        0.5000000000



     Writing output data file ./work/LiC439.save/
     NEW-OLD atomic charge density approx. for the potential

     negative rho (up, down):  4.579E-05 0.000E+00
     extrapolated charge    8.33288, renormalised to    8.00000

     total cpu time spent up to now is        1.5 secs

     Self-consistent Calculation

     iteration #  1     ecut=    50.00 Ry     beta= 0.70
     Davidson diagonalization with overlap
     c_bands:  1 eigenvalues not converged
     c_bands:  2 eigenvalues not converged
     c_bands:  3 eigenvalues not converged
     c_bands:  1 eigenvalues not converged
     c_bands:  3 eigenvalues not converged
     c_bands:  3 eigenvalues not converged
     c_bands:  4 eigenvalues not converged
     c_bands:  3 eigenvalues not converged
     c_bands:  2 eigenvalues not converged
     c_bands:  1 eigenvalues not converged
     c_bands:  3 eigenvalues not converged
     c_bands:  4 eigenvalues not converged
     c_bands:  1 eigenvalues not converged
     c_bands:  4 eigenvalues not converged
     c_bands:  4 eigenvalues not converged
     c_bands:  4 eigenvalues not converged
     c_bands:  4 eigenvalues not converged
     c_bands:  5 eigenvalues not converged
     c_bands:  5 eigenvalues not converged
     ethr =  1.00E-06,  avg # of iterations = 19.2

     negative rho (up, down):  3.814E-08 0.000E+00

     total cpu time spent up to now is        2.2 secs

     total energy              =     607.75261797 Ry
     estimated scf accuracy    <     353.83514979 Ry

     iteration #  2     ecut=    50.00 Ry     beta= 0.70
     Davidson diagonalization with overlap
     c_bands:  4 eigenvalues not converged
     c_bands:  3 eigenvalues not converged
     c_bands:  1 eigenvalues not converged
     c_bands:  5 eigenvalues not converged
     c_bands:  5 eigenvalues not converged
     c_bands:  1 eigenvalues not converged
     c_bands:  5 eigenvalues not converged
     ethr =  1.00E-02,  avg # of iterations = 34.1

     total cpu time spent up to now is        3.5 secs

     total energy              =    -138.81973579 Ry
     estimated scf accuracy    <     180.42650190 Ry

     iteration #  3     ecut=    50.00 Ry     beta= 0.70
     Davidson diagonalization with overlap
     c_bands:  2 eigenvalues not converged
     ethr =  1.00E-02,  avg # of iterations =  6.0

     total cpu time spent up to now is        3.7 secs

     total energy              =     -50.55124944 Ry
     estimated scf accuracy    <      62.35359603 Ry

     iteration #  4     ecut=    50.00 Ry     beta= 0.70
     Davidson diagonalization with overlap
     ethr =  1.00E-02,  avg # of iterations =  3.1

     total cpu time spent up to now is        3.9 secs

     total energy              =     -46.77721175 Ry
     estimated scf accuracy    <      15.03882944 Ry

     iteration #  5     ecut=    50.00 Ry     beta= 0.70
     Davidson diagonalization with overlap
     ethr =  1.00E-02,  avg # of iterations =  1.0

     total cpu time spent up to now is        4.0 secs

     total energy              =     -24.55715675 Ry
     estimated scf accuracy    <      12.90947075 Ry

     iteration #  6     ecut=    50.00 Ry     beta= 0.70
     Davidson diagonalization with overlap
     ethr =  1.00E-02,  avg # of iterations =  4.0

     total cpu time spent up to now is        4.2 secs

     total energy              =     -37.29272484 Ry
     estimated scf accuracy    <       1.10120063 Ry

     iteration #  7     ecut=    50.00 Ry     beta= 0.70
     Davidson diagonalization with overlap
     ethr =  1.00E-02,  avg # of iterations =  2.1

     total cpu time spent up to now is        4.3 secs

     total energy              =     -38.35909810 Ry
     estimated scf accuracy    <       7.74253308 Ry

     iteration #  8     ecut=    50.00 Ry     beta= 0.70
     Davidson diagonalization with overlap
     ethr =  1.00E-02,  avg # of iterations =  1.0

     total cpu time spent up to now is        4.4 secs

     total energy              =     -38.09303054 Ry
     estimated scf accuracy    <       8.28600574 Ry

     iteration #  9     ecut=    50.00 Ry     beta= 0.70
     Davidson diagonalization with overlap
     ethr =  1.00E-02,  avg # of iterations =  1.0

     total cpu time spent up to now is        4.5 secs

     total energy              =     -31.21925931 Ry
     estimated scf accuracy    <       8.15187137 Ry

     iteration # 10     ecut=    50.00 Ry     beta= 0.70
     Davidson diagonalization with overlap
     ethr =  1.00E-02,  avg # of iterations =  1.0

     negative rho (up, down):  2.265E-03 0.000E+00

     total cpu time spent up to now is        4.6 secs

     total energy              =     -22.56139823 Ry
     estimated scf accuracy    <       4.52274354 Ry

     iteration # 11     ecut=    50.00 Ry     beta= 0.70
     Davidson diagonalization with overlap
     ethr =  1.00E-02,  avg # of iterations =  7.2

     negative rho (up, down):  9.448E-04 0.000E+00

     total cpu time spent up to now is        4.8 secs

     total energy              =     -22.86867185 Ry
     estimated scf accuracy    <       0.41514847 Ry

     iteration # 12     ecut=    50.00 Ry     beta= 0.70
     Davidson diagonalization with overlap
     ethr =  5.19E-03,  avg # of iterations =  2.1

     negative rho (up, down):  5.285E-03 0.000E+00

     total cpu time spent up to now is        4.9 secs

     total energy              =     -22.87900717 Ry
     estimated scf accuracy    <       0.38165491 Ry

     iteration # 13     ecut=    50.00 Ry     beta= 0.70
     Davidson diagonalization with overlap
     ethr =  4.77E-03,  avg # of iterations =  1.0

     negative rho (up, down):  9.167E-03 0.000E+00

     total cpu time spent up to now is        5.0 secs

     total energy              =     -22.93703648 Ry
     estimated scf accuracy    <       0.42075115 Ry

     iteration # 14     ecut=    50.00 Ry     beta= 0.70
     Davidson diagonalization with overlap
     ethr =  4.77E-03,  avg # of iterations =  1.6

     negative rho (up, down):  2.168E-02 0.000E+00

     total cpu time spent up to now is        5.2 secs

     total energy              =     -23.08830189 Ry
     estimated scf accuracy    <       1.12443017 Ry

     iteration # 15     ecut=    50.00 Ry     beta= 0.70
     Davidson diagonalization with overlap
     ethr =  4.77E-03,  avg # of iterations =  4.3

     negative rho (up, down):  1.664E-02 0.000E+00

     total cpu time spent up to now is        5.3 secs

     total energy              =     -22.43721482 Ry
     estimated scf accuracy    <       9.55860344 Ry

     iteration # 16     ecut=    50.00 Ry     beta= 0.70
     Davidson diagonalization with overlap
     ethr =  4.77E-03,  avg # of iterations =  2.2

     negative rho (up, down):  2.285E-02 0.000E+00

     total cpu time spent up to now is        5.4 secs

     total energy              =     -22.78422202 Ry
     estimated scf accuracy    <       0.53667349 Ry

     iteration # 17     ecut=    50.00 Ry     beta= 0.70
     Davidson diagonalization with overlap
     ethr =  4.77E-03,  avg # of iterations =  3.5

     negative rho (up, down):  3.396E-02 0.000E+00

     total cpu time spent up to now is        5.6 secs

     total energy              =     -22.83791123 Ry
     estimated scf accuracy    <       0.23382523 Ry

     iteration # 18     ecut=    50.00 Ry     beta= 0.70
     Davidson diagonalization with overlap
     ethr =  2.92E-03,  avg # of iterations =  3.4

     negative rho (up, down):  6.522E-02 0.000E+00

     total cpu time spent up to now is        5.7 secs

     total energy              =     -23.61970148 Ry
     estimated scf accuracy    <       0.13501070 Ry

     iteration # 19     ecut=    50.00 Ry     beta= 0.70
     Davidson diagonalization with overlap
     ethr =  1.69E-03,  avg # of iterations = 11.4

     negative rho (up, down):  6.981E-02 0.000E+00

     total cpu time spent up to now is        6.0 secs

     total energy              =     -24.85196568 Ry
     estimated scf accuracy    <       0.57980277 Ry

     iteration # 20     ecut=    50.00 Ry     beta= 0.70
     Davidson diagonalization with overlap
     c_bands:  2 eigenvalues not converged
     c_bands:  1 eigenvalues not converged
     ethr =  1.69E-03,  avg # of iterations =  7.1

     negative rho (up, down):  1.421E-01 0.000E+00

     total cpu time spent up to now is        6.2 secs

     total energy              =     -27.39499305 Ry
     estimated scf accuracy    <       1.25575330 Ry

     iteration # 21     ecut=    50.00 Ry     beta= 0.70
     Davidson diagonalization with overlap
     c_bands:  2 eigenvalues not converged
     ethr =  1.69E-03,  avg # of iterations =  4.7

     negative rho (up, down):  1.088E-01 0.000E+00

     total cpu time spent up to now is        6.3 secs

     total energy              =     -26.47359970 Ry
     estimated scf accuracy    <       2.65815345 Ry

     iteration # 22     ecut=    50.00 Ry     beta= 0.70
     Davidson diagonalization with overlap
     ethr =  1.69E-03,  avg # of iterations =  1.0

     negative rho (up, down):  8.720E-02 0.000E+00

     total cpu time spent up to now is        6.4 secs

     total energy              =     -25.49192814 Ry
     estimated scf accuracy    <       2.11132683 Ry

     iteration # 23     ecut=    50.00 Ry     beta= 0.70
     Davidson diagonalization with overlap
     ethr =  1.69E-03,  avg # of iterations =  1.0

     negative rho (up, down):  4.943E-02 0.000E+00

     total cpu time spent up to now is        6.6 secs

     total energy              =     -22.92876728 Ry
     estimated scf accuracy    <       1.59562860 Ry

     iteration # 24     ecut=    50.00 Ry     beta= 0.70
     Davidson diagonalization with overlap
     ethr =  1.69E-03,  avg # of iterations =  3.3

     negative rho (up, down):  1.235E-02 0.000E+00

     total cpu time spent up to now is        6.7 secs

     total energy              =     -22.74403750 Ry
     estimated scf accuracy    <       0.19436842 Ry

     iteration # 25     ecut=    50.00 Ry     beta= 0.70
     Davidson diagonalization with overlap
     ethr =  1.69E-03,  avg # of iterations =  7.9

     negative rho (up, down):  3.981E-03 0.000E+00

     total cpu time spent up to now is        6.9 secs

     total energy              =     -22.76993365 Ry
     estimated scf accuracy    <       0.00167067 Ry

     iteration # 26     ecut=    50.00 Ry     beta= 0.70
     Davidson diagonalization with overlap
     ethr =  2.09E-05,  avg # of iterations =  8.2

     negative rho (up, down):  2.062E-03 0.000E+00

     total cpu time spent up to now is        7.2 secs

     total energy              =     -22.77162480 Ry
     estimated scf accuracy    <       0.00067727 Ry

     iteration # 27     ecut=    50.00 Ry     beta= 0.70
     Davidson diagonalization with overlap
     ethr =  8.47E-06,  avg # of iterations =  6.3

     negative rho (up, down):  1.234E-03 0.000E+00

     total cpu time spent up to now is        7.3 secs

     total energy              =     -22.77104116 Ry
     estimated scf accuracy    <       0.00399530 Ry

     iteration # 28     ecut=    50.00 Ry     beta= 0.70
     Davidson diagonalization with overlap
     ethr =  8.47E-06,  avg # of iterations =  3.1

     negative rho (up, down):  1.591E-04 0.000E+00

     total cpu time spent up to now is        7.5 secs

     total energy              =     -22.76947960 Ry
     estimated scf accuracy    <       0.00234577 Ry

     iteration # 29     ecut=    50.00 Ry     beta= 0.70
     Davidson diagonalization with overlap
     c_bands:  1 eigenvalues not converged
     ethr =  8.47E-06,  avg # of iterations =  8.1

     negative rho (up, down):  3.228E-05 0.000E+00

     total cpu time spent up to now is        7.7 secs

     total energy              =     -22.76997295 Ry
     estimated scf accuracy    <       0.00004248 Ry

     iteration # 30     ecut=    50.00 Ry     beta= 0.70
     Davidson diagonalization with overlap
     ethr =  5.31E-07,  avg # of iterations =  4.5

     negative rho (up, down):  5.714E-07 0.000E+00

     total cpu time spent up to now is        7.9 secs

     total energy              =     -22.76997421 Ry
     estimated scf accuracy    <       0.00000361 Ry

     iteration # 31     ecut=    50.00 Ry     beta= 0.70
     Davidson diagonalization with overlap
     ethr =  4.51E-08,  avg # of iterations =  4.8

     total cpu time spent up to now is        8.0 secs

     total energy              =     -22.76997521 Ry
     estimated scf accuracy    <       0.00000003 Ry

     iteration # 32     ecut=    50.00 Ry     beta= 0.70
     Davidson diagonalization with overlap
     ethr =  4.36E-10,  avg # of iterations =  3.3

     total cpu time spent up to now is        8.2 secs

     End of self-consistent calculation

          k = 0.0000 0.0000 0.0000 (  3955 PWs)   bands (ev):

   -24.3873 -12.3316  -6.8907  -6.8907  -1.0017  -0.2065   0.5668   0.9230

          k =-0.0000 0.0754 0.0000 (  3959 PWs)   bands (ev):

   -24.2751 -12.1941  -7.3365  -7.1421  -0.8481  -0.0501   0.7239   1.0797

          k =-0.0000 0.1507 0.0000 (  3993 PWs)   bands (ev):

   -23.9396 -11.7833  -8.5369  -7.7787  -0.3870   0.4186   1.1953   1.5494

          k =-0.0000 0.2261 0.0000 (  4013 PWs)   bands (ev):

   -23.3826 -11.1056 -10.1794  -8.5691   0.3815   1.1976   1.9810   2.3305

          k =-0.0000 0.3014 0.0000 (  4009 PWs)   bands (ev):

   -22.6079 -12.0222 -10.1762  -9.3335   1.4555   2.2705   3.0803   3.3641

          k =-0.0000 0.3768 0.0000 (  4034 PWs)   bands (ev):

   -21.6231 -13.9052  -9.9653  -9.0319   1.4891   2.8294   3.7197   4.4827

          k =-0.0000 0.4522 0.0000 (  4044 PWs)   bands (ev):

   -20.4396 -15.7265 -10.4085  -7.7609  -0.4800   4.4400   4.8320   5.4127

          k =-0.0000 0.5275 0.0000 (  4046 PWs)   bands (ev):

   -19.0976 -17.3974 -10.6372  -6.6846  -1.9295   4.6518   6.4936   7.4029

          k = 0.0653 0.1130 0.0000 (  3979 PWs)   bands (ev):

   -24.0513 -11.9199  -8.1025  -7.6439  -0.5406   0.2624   1.0382   1.3929

          k = 0.0653 0.1884 0.0000 (  4005 PWs)   bands (ev):

   -23.6051 -11.3752  -9.4247  -8.4574   0.0747   0.8866   1.6669   2.0187

          k = 0.0653 0.2638 0.0000 (  4005 PWs)   bands (ev):

   -22.9393 -11.1057 -10.5703  -9.2942   0.9967   1.8182   2.6099   2.9522

          k = 0.0653 0.3391 0.0000 (  4008 PWs)   bands (ev):

   -22.0590 -12.9372 -10.0203  -9.5293   2.2225   2.4287   3.1200   3.8658

          k = 0.0653 0.4145 0.0000 (  4033 PWs)   bands (ev):

   -20.9752 -14.7755 -10.5717  -8.3034   0.4358   3.7434   4.6323   5.2886

          k = 0.0653 0.4898 0.0000 (  4041 PWs)   bands (ev):

   -19.7046 -16.5229 -10.9125  -7.0567  -1.3334   5.1426   5.6245   6.4707

          k = 0.0653 0.5652 0.0000 (  4049 PWs)   bands (ev):

   -18.5338 -17.8566 -11.0289  -6.3902  -2.1821   5.1342   7.6026   7.7513

          k = 0.1305 0.2261 0.0000 (  4019 PWs)   bands (ev):

   -23.0500 -10.7035 -10.5665  -9.5346   0.8441   1.6649   2.4532   2.7995

          k = 0.1305 0.3014 0.0000 (  4014 PWs)   bands (ev):

   -22.2787 -12.0451 -10.5234  -9.7816   1.9189   2.7368   3.1274   3.5536

          k = 0.1305 0.3768 0.0000 (  4022 PWs)   bands (ev):

   -21.2991 -13.7531 -11.2443  -8.6433   1.2156   3.2947   4.1454   4.9666

          k = 0.1305 0.4522 0.0000 (  4053 PWs)   bands (ev):

   -20.1262 -15.4911 -11.7194  -7.3724  -0.6220   4.9609   5.8160   6.5409

          k = 0.1305 0.5275 0.0000 (  4065 PWs)   bands (ev):

   -18.8031 -17.1155 -11.9566  -6.2723  -2.0266   6.4492   6.9414   7.6773

          k = 0.1958 0.3391 0.0000 (  4023 PWs)   bands (ev):

   -21.4084 -13.0746 -11.8316  -8.7586   1.5454   3.1436   3.9740   4.8108

          k = 0.1958 0.4145 0.0000 (  4060 PWs)   bands (ev):

   -20.3396 -14.4590 -12.7031  -7.5480  -0.1087   4.6627   5.4644   6.3796

          k = 0.1958 0.4898 0.0000 (  4076 PWs)   bands (ev):

   -19.0957 -16.0283 -13.1345  -6.2817  -1.6699   6.4582   7.0439   8.2762

          k = 0.1958 0.5652 0.0000 (  4071 PWs)   bands (ev):

   -17.9771 -17.2711 -13.2680  -5.5497  -2.5052   7.7677   8.2324   8.3923

          k = 0.2610 0.4522 0.0000 (  4091 PWs)   bands (ev):

   -19.1984 -15.2216 -13.9860  -6.3014  -1.4844   6.3086   6.7839   8.1001

          k = 0.2610 0.5275 0.0000 (  4105 PWs)   bands (ev):

   -17.9350 -16.3972 -14.5528  -5.0957  -2.7484   7.1474   8.1737   9.6406

          k = 0.3263 0.5652 0.0000 (  4095 PWs)   bands (ev):

   -16.8693 -16.8693 -15.3638  -3.8939  -3.8939   6.9064   9.7139   9.7140

     the Fermi energy is    -3.8939 ev

!    total energy              =     -22.76997522 Ry
     estimated scf accuracy    <          3.9E-09 Ry
     smearing contrib. (-TS)   =      -0.00005015 Ry
     internal energy E=F+TS    =     -22.76992507 Ry

     The total energy is F=E-TS. E is the sum of the following terms:
     one-electron contribution =    -418.00058030 Ry
     hartree contribution      =     209.70176409 Ry
     xc contribution           =      -7.17879270 Ry
     ewald contribution        =     192.70768384 Ry

     convergence has been achieved in  32 iterations

     Forces acting on atoms (cartesian axes, Ry/au):

     atom    1 type  1   force =    -0.00000000   -0.00000000    0.00000000
     atom    2 type  1   force =     0.00000000    0.00000000    0.00000000

     Total force =     0.000000     Total SCF correction =     0.000000


     Computing stress (Cartesian axis) and pressure

          total   stress  (Ry/bohr**3)                   (kbar)     P=       36.61
   0.00043679  -0.00000000   0.00000000           64.25       -0.00        0.00
  -0.00000000   0.00043679   0.00000000           -0.00       64.25        0.00
   0.00000000   0.00000000  -0.00012697            0.00        0.00      -18.68

     Energy error            =      2.1E-02
     Gradient error          =      1.7E-26
     Cell gradient error     =      4.4E-04


     number of scf cycles    =   2
     number of bfgs steps    =   1

     enthalpy old            =     -22.7491425861 Ry
     enthalpy new            =     -22.7699752215 Ry

     CASE: enthalpy_new < enthalpy_old

     new trust radius        =       0.1204439647 bohr
     new conv_thr            =            1.0E-10 Ry

     new unit-cell volume =    737.70159 a.u.^3 (   109.31610 Ang^3 )
     density =      0.36489 g/cm^3

CELL_PARAMETERS (alat=  4.39000000)
   1.044679355  -0.000000000   0.000000000
  -0.522339677   0.904718860   0.000000000
   0.000000000   0.000000000   9.225512528

ATOMIC_POSITIONS (crystal)
C             0.3333333333        0.6666666667        0.5000000000
C             0.6666666667        0.3333333333        0.5000000000



     Writing output data file ./work/LiC439.save/
     NEW-OLD atomic charge density approx. for the potential

     negative rho (up, down):  6.432E-05 0.000E+00
     extrapolated charge    8.35022, renormalised to    8.00000

     total cpu time spent up to now is        8.2 secs

     Self-consistent Calculation

     iteration #  1     ecut=    50.00 Ry     beta= 0.70
     Davidson diagonalization with overlap
     c_bands:  1 eigenvalues not converged
     c_bands:  2 eigenvalues not converged
     c_bands:  4 eigenvalues not converged
     c_bands:  3 eigenvalues not converged
     c_bands:  3 eigenvalues not converged
     c_bands:  1 eigenvalues not converged
     c_bands:  3 eigenvalues not converged
     c_bands:  3 eigenvalues not converged
     c_bands:  3 eigenvalues not converged
     c_bands:  3 eigenvalues not converged
     c_bands:  1 eigenvalues not converged
     c_bands:  2 eigenvalues not converged
     c_bands:  2 eigenvalues not converged
     c_bands:  3 eigenvalues not converged
     c_bands:  2 eigenvalues not converged
     c_bands:  1 eigenvalues not converged
     c_bands:  3 eigenvalues not converged
     c_bands:  4 eigenvalues not converged
     c_bands:  3 eigenvalues not converged
     c_bands:  4 eigenvalues not converged
     c_bands:  5 eigenvalues not converged
     c_bands:  5 eigenvalues not converged
     ethr =  1.00E-06,  avg # of iterations = 19.3

     negative rho (up, down):  1.635E-07 0.000E+00

     total cpu time spent up to now is        8.9 secs

     total energy              =     580.85169419 Ry
     estimated scf accuracy    <     338.49239740 Ry

     iteration #  2     ecut=    50.00 Ry     beta= 0.70
     Davidson diagonalization with overlap
     c_bands:  1 eigenvalues not converged
     c_bands:  5 eigenvalues not converged
     c_bands:  3 eigenvalues not converged
     c_bands:  5 eigenvalues not converged
     c_bands:  5 eigenvalues not converged
     c_bands:  5 eigenvalues not converged
     c_bands:  5 eigenvalues not converged
     c_bands:  1 eigenvalues not converged
     c_bands:  4 eigenvalues not converged
     c_bands:  1 eigenvalues not converged
     ethr =  1.00E-02,  avg # of iterations = 33.3

     negative rho (up, down):  2.140E-08 0.000E+00

     total cpu time spent up to now is       10.2 secs

     total energy              =    -133.76653728 Ry
     estimated scf accuracy    <     172.62843667 Ry

     iteration #  3     ecut=    50.00 Ry     beta= 0.70
     Davidson diagonalization with overlap
     c_bands:  1 eigenvalues not converged
     ethr =  1.00E-02,  avg # of iterations =  6.6

     total cpu time spent up to now is       10.4 secs

     total energy              =     -48.99229158 Ry
     estimated scf accuracy    <      59.67629058 Ry

     iteration #  4     ecut=    50.00 Ry     beta= 0.70
     Davidson diagonalization with overlap
     ethr =  1.00E-02,  avg # of iterations =  3.3

     total cpu time spent up to now is       10.6 secs

     total energy              =     -46.44074618 Ry
     estimated scf accuracy    <      14.22409971 Ry

     iteration #  5     ecut=    50.00 Ry     beta= 0.70
     Davidson diagonalization with overlap
     ethr =  1.00E-02,  avg # of iterations =  1.0

     total cpu time spent up to now is       10.7 secs

     total energy              =     -24.68606967 Ry
     estimated scf accuracy    <      12.71759070 Ry

     iteration #  6     ecut=    50.00 Ry     beta= 0.70
     Davidson diagonalization with overlap
     ethr =  1.00E-02,  avg # of iterations =  3.5

     total cpu time spent up to now is       10.8 secs

     total energy              =     -35.68020035 Ry
     estimated scf accuracy    <       1.15435205 Ry

     iteration #  7     ecut=    50.00 Ry     beta= 0.70
     Davidson diagonalization with overlap
     ethr =  1.00E-02,  avg # of iterations =  2.2

     total cpu time spent up to now is       11.0 secs

     total energy              =     -37.50416016 Ry
     estimated scf accuracy    <       6.86859295 Ry

     iteration #  8     ecut=    50.00 Ry     beta= 0.70
     Davidson diagonalization with overlap
     ethr =  1.00E-02,  avg # of iterations =  1.0

     total cpu time spent up to now is       11.1 secs

     total energy              =     -36.84157865 Ry
     estimated scf accuracy    <       7.83031771 Ry

     iteration #  9     ecut=    50.00 Ry     beta= 0.70
     Davidson diagonalization with overlap
     ethr =  1.00E-02,  avg # of iterations =  1.0

     total cpu time spent up to now is       11.2 secs

     total energy              =     -23.56518705 Ry
     estimated scf accuracy    <       7.49445064 Ry

     iteration # 10     ecut=    50.00 Ry     beta= 0.70
     Davidson diagonalization with overlap
     ethr =  1.00E-02,  avg # of iterations =  2.1

     negative rho (up, down):  1.990E-04 0.000E+00

     total cpu time spent up to now is       11.3 secs

     total energy              =     -22.76097358 Ry
     estimated scf accuracy    <       0.47859976 Ry

     iteration # 11     ecut=    50.00 Ry     beta= 0.70
     Davidson diagonalization with overlap
     ethr =  5.98E-03,  avg # of iterations =  6.2

     negative rho (up, down):  6.269E-04 0.000E+00

     total cpu time spent up to now is       11.5 secs

     total energy              =     -22.80172681 Ry
     estimated scf accuracy    <       0.08527199 Ry

     iteration # 12     ecut=    50.00 Ry     beta= 0.70
     Davidson diagonalization with overlap
     ethr =  1.07E-03,  avg # of iterations =  4.8

     negative rho (up, down):  2.640E-03 0.000E+00

     total cpu time spent up to now is       11.6 secs

     total energy              =     -22.77637335 Ry
     estimated scf accuracy    <       0.06042570 Ry

     iteration # 13     ecut=    50.00 Ry     beta= 0.70
     Davidson diagonalization with overlap
     ethr =  7.55E-04,  avg # of iterations =  1.9

     negative rho (up, down):  3.002E-03 0.000E+00

     total cpu time spent up to now is       11.8 secs

     total energy              =     -22.77945418 Ry
     estimated scf accuracy    <       0.00915203 Ry

     iteration # 14     ecut=    50.00 Ry     beta= 0.70
     Davidson diagonalization with overlap
     ethr =  1.14E-04,  avg # of iterations =  4.4

     negative rho (up, down):  8.926E-03 0.000E+00

     total cpu time spent up to now is       11.9 secs

     total energy              =     -22.77973613 Ry
     estimated scf accuracy    <       0.00650209 Ry

     iteration # 15     ecut=    50.00 Ry     beta= 0.70
     Davidson diagonalization with overlap
     ethr =  8.13E-05,  avg # of iterations =  1.6

     negative rho (up, down):  1.100E-02 0.000E+00

     total cpu time spent up to now is       12.0 secs

     total energy              =     -22.78183281 Ry
     estimated scf accuracy    <       0.00615823 Ry

     iteration # 16     ecut=    50.00 Ry     beta= 0.70
     Davidson diagonalization with overlap
     ethr =  7.70E-05,  avg # of iterations =  1.2

     negative rho (up, down):  1.483E-02 0.000E+00

     total cpu time spent up to now is       12.1 secs

     total energy              =     -22.79724729 Ry
     estimated scf accuracy    <       0.00997331 Ry

     iteration # 17     ecut=    50.00 Ry     beta= 0.70
     Davidson diagonalization with overlap
     ethr =  7.70E-05,  avg # of iterations =  3.8

     negative rho (up, down):  1.318E-02 0.000E+00

     total cpu time spent up to now is       12.3 secs

     total energy              =     -22.79023582 Ry
     estimated scf accuracy    <       0.04803401 Ry

     iteration # 18     ecut=    50.00 Ry     beta= 0.70
     Davidson diagonalization with overlap
     ethr =  7.70E-05,  avg # of iterations =  1.9

     negative rho (up, down):  9.079E-04 0.000E+00

     total cpu time spent up to now is       12.4 secs

     total energy              =     -22.77216936 Ry
     estimated scf accuracy    <       0.02825504 Ry

     iteration # 19     ecut=    50.00 Ry     beta= 0.70
     Davidson diagonalization with overlap
     ethr =  7.70E-05,  avg # of iterations =  4.9

     negative rho (up, down):  3.679E-04 0.000E+00

     total cpu time spent up to now is       12.6 secs

     total energy              =     -22.77779616 Ry
     estimated scf accuracy    <       0.00178191 Ry

     iteration # 20     ecut=    50.00 Ry     beta= 0.70
     Davidson diagonalization with overlap
     c_bands:  1 eigenvalues not converged
     ethr =  2.23E-05,  avg # of iterations =  6.1

     negative rho (up, down):  2.394E-08 0.000E+00

     total cpu time spent up to now is       12.8 secs

     total energy              =     -22.77769191 Ry
     estimated scf accuracy    <       0.00055871 Ry

     iteration # 21     ecut=    50.00 Ry     beta= 0.70
     Davidson diagonalization with overlap
     c_bands:  1 eigenvalues not converged
     ethr =  6.98E-06,  avg # of iterations =  5.4

     total cpu time spent up to now is       12.9 secs

     total energy              =     -22.77773658 Ry
     estimated scf accuracy    <       0.00000235 Ry

     iteration # 22     ecut=    50.00 Ry     beta= 0.70
     Davidson diagonalization with overlap
     ethr =  2.94E-08,  avg # of iterations =  4.9

     total cpu time spent up to now is       13.1 secs

     total energy              =     -22.77773834 Ry
     estimated scf accuracy    <       0.00000056 Ry

     iteration # 23     ecut=    50.00 Ry     beta= 0.70
     Davidson diagonalization with overlap
     ethr =  7.03E-09,  avg # of iterations =  2.1

     total cpu time spent up to now is       13.2 secs

     total energy              =     -22.77773842 Ry
     estimated scf accuracy    <       0.00000003 Ry

     iteration # 24     ecut=    50.00 Ry     beta= 0.70
     Davidson diagonalization with overlap
     ethr =  3.72E-10,  avg # of iterations =  2.6

     total cpu time spent up to now is       13.4 secs

     total energy              =     -22.77773843 Ry
     estimated scf accuracy    <          7.9E-10 Ry

     iteration # 25     ecut=    50.00 Ry     beta= 0.70
     Davidson diagonalization with overlap
     ethr =  9.93E-12,  avg # of iterations =  2.9

     total cpu time spent up to now is       13.5 secs

     End of self-consistent calculation

          k = 0.0000 0.0000 0.0000 (  3955 PWs)   bands (ev):

   -24.0494 -12.0629  -7.1220  -7.1220  -0.9917  -0.2092   0.5708   0.9279

          k = 0.0000 0.0737 0.0000 (  3959 PWs)   bands (ev):

   -23.9413 -11.9325  -7.5569  -7.3565  -0.8446  -0.0599   0.7210   1.0776

          k = 0.0000 0.1474 0.0000 (  3993 PWs)   bands (ev):

   -23.6182 -11.5433  -8.7268  -7.9532  -0.4033   0.3877   1.1717   1.5263

          k = 0.0000 0.2211 0.0000 (  4013 PWs)   bands (ev):

   -23.0818 -10.9016 -10.3188  -8.6961   0.3320   1.1315   1.9229   2.2720

          k = 0.0000 0.2948 0.0000 (  4009 PWs)   bands (ev):

   -22.3360 -12.0999 -10.0224  -9.4168   1.3592   2.1463   2.9730   2.9839

          k = 0.0000 0.3684 0.0000 (  4034 PWs)   bands (ev):

   -21.3895 -13.9156 -10.0132  -8.9420   1.0074   2.6711   3.5341   4.0422

          k = 0.0000 0.4421 0.0000 (  4044 PWs)   bands (ev):

   -20.2563 -15.6658 -10.4317  -7.7461  -0.8322   3.8162   4.3254   5.1523

          k = 0.0000 0.5158 0.0000 (  4046 PWs)   bands (ev):

   -18.9978 -17.2418 -10.6478  -6.7410  -2.1808   3.7434   6.1688   7.0471

          k = 0.0638 0.1105 0.0000 (  3979 PWs)   bands (ev):

   -23.7257 -11.6727  -8.3068  -7.8255  -0.5503   0.2386   1.0215   1.3768

          k = 0.0638 0.1842 0.0000 (  4005 PWs)   bands (ev):

   -23.2960 -11.1569  -9.5935  -8.5912   0.0384   0.8347   1.6227   1.9745

          k = 0.0638 0.2579 0.0000 (  4005 PWs)   bands (ev):

   -22.6549 -11.2193 -10.3950  -9.3832   0.9203   1.7236   2.5240   2.8640

          k = 0.0638 0.3316 0.0000 (  4008 PWs)   bands (ev):

   -21.8080 -12.9856 -10.0720  -9.4112   1.8939   2.0924   2.9453   3.7232

          k = 0.0638 0.4053 0.0000 (  4033 PWs)   bands (ev):

   -20.7680 -14.7550 -10.5955  -8.2553   0.0163   3.5414   4.4074   4.4345

          k = 0.0638 0.4790 0.0000 (  4041 PWs)   bands (ev):

   -19.5577 -16.4256 -10.9190  -7.0858  -1.6331   4.2558   5.3134   6.1588

          k = 0.0638 0.5527 0.0000 (  4049 PWs)   bands (ev):

   -18.5219 -17.6186 -11.0298  -6.4661  -2.4203   4.2116   7.2229   7.3770

          k = 0.1276 0.2211 0.0000 (  4019 PWs)   bands (ev):

   -22.7615 -10.7141 -10.5211  -9.6051   0.7742   1.5778   2.3743   2.7201

          k = 0.1276 0.2948 0.0000 (  4014 PWs)   bands (ev):

   -22.0191 -12.1442 -10.5477  -9.6493   1.8020   2.4668   2.6439   3.4260

          k = 0.1276 0.3684 0.0000 (  4022 PWs)   bands (ev):

   -21.0777 -13.7830 -11.2434  -8.5747   0.7273   3.1172   3.9429   4.7756

          k = 0.1276 0.4421 0.0000 (  4053 PWs)   bands (ev):

   -19.9554 -15.4476 -11.7022  -7.3787  -0.9873   4.7055   5.5334   5.6332

          k = 0.1276 0.5158 0.0000 (  4065 PWs)   bands (ev):

   -18.7145 -16.9779 -11.9307  -6.3503  -2.2943   5.5102   6.5845   7.2907

          k = 0.1914 0.3316 0.0000 (  4023 PWs)   bands (ev):

   -21.1827 -13.1658 -11.7781  -8.6830   1.0234   2.9726   3.7806   4.6277

          k = 0.1914 0.4053 0.0000 (  4060 PWs)   bands (ev):

   -20.1578 -14.4915 -12.6235  -7.5418  -0.5272   4.4240   5.1981   6.1263

          k = 0.1914 0.4790 0.0000 (  4076 PWs)   bands (ev):

   -18.9737 -15.9752 -13.0541  -6.3525  -1.9871   6.1349   6.6885   7.3307

          k = 0.1914 0.5527 0.0000 (  4071 PWs)   bands (ev):

   -17.9744 -17.0897 -13.1871  -5.6698  -2.7642   7.2569   7.3639   7.9628

          k = 0.2553 0.4421 0.0000 (  4091 PWs)   bands (ev):

   -19.0679 -15.2695 -13.8118  -6.3684  -1.8271   5.9938   6.4448   7.7271

          k = 0.2553 0.5158 0.0000 (  4105 PWs)   bands (ev):

   -17.8812 -16.3642 -14.3679  -5.2365  -3.0160   6.8035   7.7586   9.2166

          k = 0.3191 0.5527 0.0000 (  4095 PWs)   bands (ev):

   -16.8863 -16.8863 -15.0520  -4.1027  -4.1027   6.5906   9.1022   9.1024

     the Fermi energy is    -4.1027 ev

!    total energy              =     -22.77773843 Ry
     estimated scf accuracy    <          3.9E-12 Ry
     smearing contrib. (-TS)   =      -0.00005015 Ry
     internal energy E=F+TS    =     -22.77768828 Ry

     The total energy is F=E-TS. E is the sum of the following terms:
     one-electron contribution =    -399.43432708 Ry
     hartree contribution      =     200.36883289 Ry
     xc contribution           =      -7.07854119 Ry
     ewald contribution        =     183.36634709 Ry

     convergence has been achieved in  25 iterations

     Forces acting on atoms (cartesian axes, Ry/au):

     atom    1 type  1   force =     0.00000000    0.00000000    0.00000000
     atom    2 type  1   force =    -0.00000000   -0.00000000    0.00000000

     Total force =     0.000000     Total SCF correction =     0.000000


     Computing stress (Cartesian axis) and pressure

          total   stress  (Ry/bohr**3)                   (kbar)     P=       -0.70
   0.00005695  -0.00000000  -0.00000000            8.38       -0.00       -0.00
  -0.00000000   0.00005695  -0.00000000           -0.00        8.38       -0.00
  -0.00000000  -0.00000000  -0.00012822           -0.00       -0.00      -18.86

     Energy error            =      7.8E-03
     Gradient error          =      1.6E-26
     Cell gradient error     =      5.7E-05


     number of scf cycles    =   3
     number of bfgs steps    =   2

     enthalpy old            =     -22.7699752215 Ry
     enthalpy new            =     -22.7777384285 Ry

     CASE: enthalpy_new < enthalpy_old

     new trust radius        =       0.0185303276 bohr
     new conv_thr            =            1.0E-10 Ry

     new unit-cell volume =    742.74313 a.u.^3 (   110.06318 Ang^3 )
     density =      0.36241 g/cm^3

CELL_PARAMETERS (alat=  4.39000000)
   1.048243011  -0.000000000   0.000000000
  -0.524121505   0.907805076   0.000000000
   0.000000000   0.000000000   9.225512528

ATOMIC_POSITIONS (crystal)
C             0.3333333333        0.6666666667        0.5000000000
C             0.6666666667        0.3333333333        0.5000000000



     Writing output data file ./work/LiC439.save/
     NEW-OLD atomic charge density approx. for the potential

     negative rho (up, down):  3.073E-06 0.000E+00
     extrapolated charge    8.05421, renormalised to    8.00000

     total cpu time spent up to now is       13.6 secs

     Self-consistent Calculation

     iteration #  1     ecut=    50.00 Ry     beta= 0.70
     Davidson diagonalization with overlap
     c_bands:  1 eigenvalues not converged
     c_bands:  1 eigenvalues not converged
     c_bands:  1 eigenvalues not converged
     c_bands:  1 eigenvalues not converged
     c_bands:  1 eigenvalues not converged
     ethr =  1.00E-06,  avg # of iterations = 15.5

     total cpu time spent up to now is       13.9 secs

     total energy              =     -22.62280454 Ry
     estimated scf accuracy    <       0.07222108 Ry

     iteration #  2     ecut=    50.00 Ry     beta= 0.70
     Davidson diagonalization with overlap
     ethr =  9.03E-04,  avg # of iterations =  8.1

     total cpu time spent up to now is       14.2 secs

     total energy              =     -22.79675945 Ry
     estimated scf accuracy    <       0.04441903 Ry

     iteration #  3     ecut=    50.00 Ry     beta= 0.70
     Davidson diagonalization with overlap
     ethr =  5.55E-04,  avg # of iterations =  2.4

     total cpu time spent up to now is       14.3 secs

     total energy              =     -22.78675271 Ry
     estimated scf accuracy    <       0.01338336 Ry

     iteration #  4     ecut=    50.00 Ry     beta= 0.70
     Davidson diagonalization with overlap
     ethr =  1.67E-04,  avg # of iterations =  4.0

     total cpu time spent up to now is       14.4 secs

     total energy              =     -22.78086814 Ry
     estimated scf accuracy    <       0.00611581 Ry

     iteration #  5     ecut=    50.00 Ry     beta= 0.70
     Davidson diagonalization with overlap
     ethr =  7.64E-05,  avg # of iterations =  4.4

     total cpu time spent up to now is       14.6 secs

     total energy              =     -22.77990473 Ry
     estimated scf accuracy    <       0.00219574 Ry

     iteration #  6     ecut=    50.00 Ry     beta= 0.70
     Davidson diagonalization with overlap
     ethr =  2.74E-05,  avg # of iterations =  3.7

     total cpu time spent up to now is       14.7 secs

     total energy              =     -22.77784829 Ry
     estimated scf accuracy    <       0.00149858 Ry

     iteration #  7     ecut=    50.00 Ry     beta= 0.70
     Davidson diagonalization with overlap
     ethr =  1.87E-05,  avg # of iterations =  8.6

     total cpu time spent up to now is       14.9 secs

     total energy              =     -22.77796153 Ry
     estimated scf accuracy    <       0.00003351 Ry

     iteration #  8     ecut=    50.00 Ry     beta= 0.70
     Davidson diagonalization with overlap
     ethr =  4.19E-07,  avg # of iterations =  3.9

     total cpu time spent up to now is       15.1 secs

     total energy              =     -22.77788812 Ry
     estimated scf accuracy    <       0.00008497 Ry

     iteration #  9     ecut=    50.00 Ry     beta= 0.70
     Davidson diagonalization with overlap
     ethr =  4.19E-07,  avg # of iterations =  4.9

     total cpu time spent up to now is       15.3 secs

     total energy              =     -22.77789253 Ry
     estimated scf accuracy    <       0.00000052 Ry

     iteration # 10     ecut=    50.00 Ry     beta= 0.70
     Davidson diagonalization with overlap
     ethr =  6.52E-09,  avg # of iterations =  1.9

     total cpu time spent up to now is       15.4 secs

     total energy              =     -22.77789347 Ry
     estimated scf accuracy    <       0.00000022 Ry

     iteration # 11     ecut=    50.00 Ry     beta= 0.70
     Davidson diagonalization with overlap
     ethr =  2.74E-09,  avg # of iterations =  4.6

     total cpu time spent up to now is       15.5 secs

     total energy              =     -22.77789349 Ry
     estimated scf accuracy    <       0.00000002 Ry

     iteration # 12     ecut=    50.00 Ry     beta= 0.70
     Davidson diagonalization with overlap
     ethr =  2.14E-10,  avg # of iterations =  1.8

     total cpu time spent up to now is       15.6 secs

     total energy              =     -22.77789349 Ry
     estimated scf accuracy    <       0.00000001 Ry

     iteration # 13     ecut=    50.00 Ry     beta= 0.70
     Davidson diagonalization with overlap
     ethr =  1.82E-10,  avg # of iterations =  1.0

     total cpu time spent up to now is       15.8 secs

     total energy              =     -22.77789349 Ry
     estimated scf accuracy    <          6.5E-09 Ry

     iteration # 14     ecut=    50.00 Ry     beta= 0.70
     Davidson diagonalization with overlap
     ethr =  8.07E-11,  avg # of iterations =  1.0

     total cpu time spent up to now is       15.9 secs

     total energy              =     -22.77789349 Ry
     estimated scf accuracy    <          2.3E-09 Ry

     iteration # 15     ecut=    50.00 Ry     beta= 0.70
     Davidson diagonalization with overlap
     ethr =  2.83E-11,  avg # of iterations =  1.0

     total cpu time spent up to now is       16.0 secs

     total energy              =     -22.77789349 Ry
     estimated scf accuracy    <          1.9E-09 Ry

     iteration # 16     ecut=    50.00 Ry     beta= 0.70
     Davidson diagonalization with overlap
     ethr =  2.41E-11,  avg # of iterations =  1.0

     total cpu time spent up to now is       16.1 secs

     total energy              =     -22.77789349 Ry
     estimated scf accuracy    <          2.4E-10 Ry

     iteration # 17     ecut=    50.00 Ry     beta= 0.70
     Davidson diagonalization with overlap
     ethr =  2.99E-12,  avg # of iterations =  1.6

     total cpu time spent up to now is       16.2 secs

     total energy              =     -22.77789349 Ry
     estimated scf accuracy    <          1.7E-10 Ry

     iteration # 18     ecut=    50.00 Ry     beta= 0.70
     Davidson diagonalization with overlap
     ethr =  2.06E-12,  avg # of iterations =  2.0

     total cpu time spent up to now is       16.3 secs

     End of self-consistent calculation

          k = 0.0000 0.0000 0.0000 (  3955 PWs)   bands (ev):

   -23.9980 -12.0228  -7.1547  -7.1547  -0.9899  -0.2093   0.5710   0.9283

          k = 0.0000 0.0734 0.0000 (  3959 PWs)   bands (ev):

   -23.8906 -11.8935  -7.5880  -7.3867  -0.8438  -0.0610   0.7202   1.0770

          k = 0.0000 0.1469 0.0000 (  3993 PWs)   bands (ev):

   -23.5693 -11.5075  -8.7536  -7.9775  -0.4054   0.3835   1.1679   1.5226

          k = 0.0000 0.2203 0.0000 (  4013 PWs)   bands (ev):

   -23.0360 -10.8712 -10.3382  -8.7135   0.3250   1.1221   1.9139   2.2630

          k = 0.0000 0.2937 0.0000 (  4009 PWs)   bands (ev):

   -22.2946 -12.1103  -9.9993  -9.4277   1.3452   2.1273   2.9010   2.9568

          k = 0.0000 0.3672 0.0000 (  4034 PWs)   bands (ev):

   -21.3538 -13.9160 -10.0189  -8.9284   0.9359   2.6478   3.5071   3.9193

          k = 0.0000 0.4406 0.0000 (  4044 PWs)   bands (ev):

   -20.2284 -15.6553 -10.4337  -7.7437  -0.8844   3.6910   4.2836   5.1140

          k = 0.0000 0.5141 0.0000 (  4046 PWs)   bands (ev):

   -18.9828 -17.2168 -10.6480  -6.7490  -2.2182   3.6090   6.1213   6.9944

          k = 0.0636 0.1102 0.0000 (  3979 PWs)   bands (ev):

   -23.6762 -11.6359  -8.3357  -7.8508  -0.5514   0.2355   1.0187   1.3741

          k = 0.0636 0.1836 0.0000 (  4005 PWs)   bands (ev):

   -23.2489 -11.1243  -9.6173  -8.6095   0.0333   0.8274   1.6157   1.9676

          k = 0.0636 0.2570 0.0000 (  4005 PWs)   bands (ev):

   -22.6116 -11.2350 -10.3688  -9.3949   0.9093   1.7098   2.5110   2.8499

          k = 0.0636 0.3305 0.0000 (  4008 PWs)   bands (ev):

   -21.7697 -12.9917 -10.0782  -9.3934   1.8133   2.0734   2.9209   3.7013

          k = 0.0636 0.4039 0.0000 (  4033 PWs)   bands (ev):

   -20.7363 -14.7507 -10.5975  -8.2479  -0.0458   3.5111   4.3034   4.3742

          k = 0.0636 0.4773 0.0000 (  4041 PWs)   bands (ev):

   -19.5353 -16.4096 -10.9185  -7.0898  -1.6775   4.1217   5.2706   6.1129

          k = 0.0636 0.5508 0.0000 (  4049 PWs)   bands (ev):

   -18.5184 -17.5829 -11.0284  -6.4769  -2.4557   4.0752   7.1669   7.3219

          k = 0.1272 0.2203 0.0000 (  4019 PWs)   bands (ev):

   -22.7175 -10.7348 -10.4938  -9.6141   0.7642   1.5652   2.3623   2.7080

          k = 0.1272 0.2937 0.0000 (  4014 PWs)   bands (ev):

   -21.9795 -12.1579 -10.5497  -9.6294   1.7850   2.3850   2.6144   3.4069

          k = 0.1272 0.3672 0.0000 (  4022 PWs)   bands (ev):

   -21.0439 -13.7864 -11.2416  -8.5642   0.6552   3.0912   3.9131   4.7468

          k = 0.1272 0.4406 0.0000 (  4053 PWs)   bands (ev):

   -19.9293 -15.4400 -11.6979  -7.3793  -1.0413   4.6675   5.4916   5.4955

          k = 0.1272 0.5141 0.0000 (  4065 PWs)   bands (ev):

   -18.7010 -16.9559 -11.9252  -6.3615  -2.3339   5.3697   6.5333   7.2337

          k = 0.1908 0.3305 0.0000 (  4023 PWs)   bands (ev):

   -21.1482 -13.1782 -11.7686  -8.6715   0.9465   2.9476   3.7521   4.6002

          k = 0.1908 0.4039 0.0000 (  4060 PWs)   bands (ev):

   -20.1300 -14.4954 -12.6097  -7.5406  -0.5889   4.3889   5.1588   6.0883

          k = 0.1908 0.4773 0.0000 (  4076 PWs)   bands (ev):

   -18.9550 -15.9665 -13.0400  -6.3626  -2.0338   6.0871   6.6362   7.1856

          k = 0.1908 0.5508 0.0000 (  4071 PWs)   bands (ev):

   -17.9723 -17.0630 -13.1728  -5.6871  -2.8024   7.1100   7.8991   8.1157

          k = 0.2544 0.4406 0.0000 (  4091 PWs)   bands (ev):

   -19.0479 -15.2753 -13.7842  -6.3780  -1.8774   5.9475   6.3950   7.6760

          k = 0.2544 0.5141 0.0000 (  4105 PWs)   bands (ev):

   -17.8727 -16.3589 -14.3378  -5.2570  -3.0552   6.7530   7.6966   8.8523

          k = 0.3180 0.5508 0.0000 (  4095 PWs)   bands (ev):

   -16.8873 -16.8873 -15.0050  -4.1332  -4.1332   6.5441   9.0074   9.5289

     the Fermi energy is    -4.1332 ev

!    total energy              =     -22.77789349 Ry
     estimated scf accuracy    <          3.6E-11 Ry
     smearing contrib. (-TS)   =      -0.00005015 Ry
     internal energy E=F+TS    =     -22.77784334 Ry

     The total energy is F=E-TS. E is the sum of the following terms:
     one-electron contribution =    -396.68875339 Ry
     hartree contribution      =     198.98883753 Ry
     xc contribution           =      -7.06356580 Ry
     ewald contribution        =     181.98563832 Ry

     convergence has been achieved in  18 iterations

     Forces acting on atoms (cartesian axes, Ry/au):

     atom    1 type  1   force =     0.00000000    0.00000000    0.00000000
     atom    2 type  1   force =    -0.00000000   -0.00000000    0.00000000

     Total force =     0.000000     Total SCF correction =     0.000000


     Computing stress (Cartesian axis) and pressure

          total   stress  (Ry/bohr**3)                   (kbar)     P=       -5.82
   0.00000486  -0.00000000   0.00000000            0.71       -0.00        0.00
  -0.00000000   0.00000486   0.00000000           -0.00        0.71        0.00
   0.00000000  -0.00000000  -0.00012843            0.00       -0.00      -18.89

     Energy error            =      1.6E-04
     Gradient error          =      1.6E-26
     Cell gradient error     =      4.9E-06


     number of scf cycles    =   4
     number of bfgs steps    =   3

     enthalpy old            =     -22.7777384285 Ry
     enthalpy new            =     -22.7778934893 Ry

     CASE: enthalpy_new < enthalpy_old

     new trust radius        =       0.0017334661 bohr
     new conv_thr            =            1.0E-10 Ry

     new unit-cell volume =    743.21564 a.u.^3 (   110.13319 Ang^3 )
     density =      0.36218 g/cm^3

CELL_PARAMETERS (alat=  4.39000000)
   1.048576382  -0.000000000   0.000000000
  -0.524288191   0.908093784   0.000000000
   0.000000000   0.000000000   9.225512528

ATOMIC_POSITIONS (crystal)
C             0.3333333333        0.6666666667        0.5000000000
C             0.6666666667        0.3333333333        0.5000000000



     Writing output data file ./work/LiC439.save/
     NEW-OLD atomic charge density approx. for the potential
     extrapolated charge    8.00508, renormalised to    8.00000

     total cpu time spent up to now is       16.4 secs

     Self-consistent Calculation

     iteration #  1     ecut=    50.00 Ry     beta= 0.70
     Davidson diagonalization with overlap
     ethr =  1.00E-06,  avg # of iterations =  6.6

     Threshold (ethr) on eigenvalues was too large:
     Diagonalizing with lowered threshold

     Davidson diagonalization with overlap
     ethr =  9.81E-08,  avg # of iterations =  1.0

     total cpu time spent up to now is       16.7 secs

     total energy              =     -22.77787897 Ry
     estimated scf accuracy    <       0.00000808 Ry

     iteration #  2     ecut=    50.00 Ry     beta= 0.70
     Davidson diagonalization with overlap
     ethr =  1.01E-07,  avg # of iterations =  5.9

     total cpu time spent up to now is       16.9 secs

     total energy              =     -22.77789516 Ry
     estimated scf accuracy    <       0.00000753 Ry

     iteration #  3     ecut=    50.00 Ry     beta= 0.70
     Davidson diagonalization with overlap
     ethr =  9.41E-08,  avg # of iterations =  1.0

     total cpu time spent up to now is       17.0 secs

     total energy              =     -22.77789468 Ry
     estimated scf accuracy    <       0.00000174 Ry

     iteration #  4     ecut=    50.00 Ry     beta= 0.70
     Davidson diagonalization with overlap
     ethr =  2.18E-08,  avg # of iterations =  1.9

     total cpu time spent up to now is       17.1 secs

     total energy              =     -22.77789480 Ry
     estimated scf accuracy    <       0.00000028 Ry

     iteration #  5     ecut=    50.00 Ry     beta= 0.70
     Davidson diagonalization with overlap
     ethr =  3.48E-09,  avg # of iterations =  1.0

     total cpu time spent up to now is       17.2 secs

     total energy              =     -22.77789479 Ry
     estimated scf accuracy    <       0.00000028 Ry

     iteration #  6     ecut=    50.00 Ry     beta= 0.70
     Davidson diagonalization with overlap
     ethr =  3.48E-09,  avg # of iterations =  1.0

     total cpu time spent up to now is       17.3 secs

     total energy              =     -22.77789462 Ry
     estimated scf accuracy    <       0.00000026 Ry

     iteration #  7     ecut=    50.00 Ry     beta= 0.70
     Davidson diagonalization with overlap
     ethr =  3.26E-09,  avg # of iterations =  2.0

     total cpu time spent up to now is       17.4 secs

     total energy              =     -22.77789466 Ry
     estimated scf accuracy    <          5.1E-09 Ry

     iteration #  8     ecut=    50.00 Ry     beta= 0.70
     Davidson diagonalization with overlap
     ethr =  6.44E-11,  avg # of iterations =  2.0

     total cpu time spent up to now is       17.5 secs

     total energy              =     -22.77789466 Ry
     estimated scf accuracy    <          2.3E-10 Ry

     iteration #  9     ecut=    50.00 Ry     beta= 0.70
     Davidson diagonalization with overlap
     ethr =  2.84E-12,  avg # of iterations =  2.7

     total cpu time spent up to now is       17.7 secs

     End of self-consistent calculation

          k = 0.0000 0.0000 0.0000 (  3955 PWs)   bands (ev):

   -23.9933 -12.0192  -7.1578  -7.1578  -0.9899  -0.2094   0.5709   0.9282

          k = 0.0000 0.0734 0.0000 (  3959 PWs)   bands (ev):

   -23.8859 -11.8900  -7.5910  -7.3896  -0.8438  -0.0612   0.7201   1.0768

          k = 0.0000 0.1468 0.0000 (  3993 PWs)   bands (ev):

   -23.5648 -11.5043  -8.7562  -7.9798  -0.4057   0.3830   1.1675   1.5221

          k = 0.0000 0.2202 0.0000 (  4013 PWs)   bands (ev):

   -23.0318 -10.8684 -10.3402  -8.7152   0.3242   1.1211   1.9130   2.2620

          k = 0.0000 0.2937 0.0000 (  4009 PWs)   bands (ev):

   -22.2908 -12.1113  -9.9973  -9.4289   1.3438   2.1254   2.8931   2.9552

          k = 0.0000 0.3671 0.0000 (  4034 PWs)   bands (ev):

   -21.3506 -13.9161 -10.0195  -8.9272   0.9292   2.6455   3.5044   3.9074

          k = 0.0000 0.4405 0.0000 (  4044 PWs)   bands (ev):

   -20.2259 -15.6544 -10.4340  -7.7435  -0.8894   3.6792   4.2797   5.1103

          k = 0.0000 0.5139 0.0000 (  4046 PWs)   bands (ev):

   -18.9815 -17.2145 -10.6482  -6.7498  -2.2217   3.5964   6.1167   6.9893

          k = 0.0636 0.1101 0.0000 (  3979 PWs)   bands (ev):

   -23.6717 -11.6325  -8.3385  -7.8532  -0.5517   0.2350   1.0184   1.3737

          k = 0.0636 0.1835 0.0000 (  4005 PWs)   bands (ev):

   -23.2447 -11.1214  -9.6197  -8.6113   0.0327   0.8265   1.6150   1.9668

          k = 0.0636 0.2569 0.0000 (  4005 PWs)   bands (ev):

   -22.6077 -11.2366 -10.3664  -9.3961   0.9081   1.7083   2.5097   2.8485

          k = 0.0636 0.3304 0.0000 (  4008 PWs)   bands (ev):

   -21.7662 -12.9924 -10.0788  -9.3919   1.8057   2.0715   2.9185   3.6992

          k = 0.0636 0.4038 0.0000 (  4033 PWs)   bands (ev):

   -20.7335 -14.7504 -10.5978  -8.2473  -0.0517   3.5081   4.2912   4.3710

          k = 0.0636 0.4772 0.0000 (  4041 PWs)   bands (ev):

   -19.5334 -16.4082 -10.9186  -7.0902  -1.6818   4.1091   5.2665   6.1084

          k = 0.0636 0.5506 0.0000 (  4049 PWs)   bands (ev):

   -18.5182 -17.5797 -11.0284  -6.4781  -2.4591   4.0624   7.1616   7.3166

          k = 0.1272 0.2202 0.0000 (  4019 PWs)   bands (ev):

   -22.7135 -10.7369 -10.4914  -9.6151   0.7631   1.5639   2.3611   2.7067

          k = 0.1272 0.2937 0.0000 (  4014 PWs)   bands (ev):

   -21.9759 -12.1593 -10.5500  -9.6277   1.7833   2.3770   2.6118   3.4050

          k = 0.1272 0.3671 0.0000 (  4022 PWs)   bands (ev):

   -21.0409 -13.7869 -11.2415  -8.5633   0.6484   3.0886   3.9101   4.7440

          k = 0.1272 0.4405 0.0000 (  4053 PWs)   bands (ev):

   -19.9270 -15.4394 -11.6976  -7.3795  -1.0464   4.6639   5.4825   5.4876

          k = 0.1272 0.5139 0.0000 (  4065 PWs)   bands (ev):

   -18.6999 -16.9539 -11.9248  -6.3626  -2.3377   5.3565   6.5284   7.2283

          k = 0.1907 0.3304 0.0000 (  4023 PWs)   bands (ev):

   -21.1451 -13.1794 -11.7678  -8.6705   0.9392   2.9452   3.7493   4.5976

          k = 0.1907 0.4038 0.0000 (  4060 PWs)   bands (ev):

   -20.1275 -14.4959 -12.6085  -7.5406  -0.5947   4.3855   5.1550   6.0847

          k = 0.1907 0.4772 0.0000 (  4076 PWs)   bands (ev):

   -18.9534 -15.9658 -13.0387  -6.3637  -2.0383   6.0826   6.6311   7.1720

          k = 0.1907 0.5506 0.0000 (  4071 PWs)   bands (ev):

   -17.9722 -17.0607 -13.1716  -5.6888  -2.8061   7.0962   7.8930   8.1098

          k = 0.2543 0.4405 0.0000 (  4091 PWs)   bands (ev):

   -19.0462 -15.2760 -13.7817  -6.3790  -1.8822   5.9431   6.3902   7.6712

          k = 0.2543 0.5139 0.0000 (  4105 PWs)   bands (ev):

   -17.8720 -16.3585 -14.3351  -5.2590  -3.0590   6.7482   7.6907   8.8388

          k = 0.3179 0.5506 0.0000 (  4095 PWs)   bands (ev):

   -16.8875 -16.8875 -15.0007  -4.1361  -4.1361   6.5397   8.9984   9.5217

     the Fermi energy is    -4.1361 ev

!    total energy              =     -22.77789466 Ry
     estimated scf accuracy    <          8.8E-11 Ry
     smearing contrib. (-TS)   =      -0.00005015 Ry
     internal energy E=F+TS    =     -22.77784451 Ry

     The total energy is F=E-TS. E is the sum of the following terms:
     one-electron contribution =    -396.43340009 Ry
     hartree contribution      =     198.86051040 Ry
     xc contribution           =      -7.06217451 Ry
     ewald contribution        =     181.85721969 Ry

     convergence has been achieved in   9 iterations

     Forces acting on atoms (cartesian axes, Ry/au):

     atom    1 type  1   force =     0.00000000    0.00000000    0.00000000
     atom    2 type  1   force =     0.00000000    0.00000000    0.00000000

     Total force =     0.000000     Total SCF correction =     0.000000


     Computing stress (Cartesian axis) and pressure

          total   stress  (Ry/bohr**3)                   (kbar)     P=       -6.29
   0.00000006   0.00000000   0.00000000            0.01        0.00        0.00
   0.00000000   0.00000006   0.00000000            0.00        0.01        0.00
   0.00000000   0.00000000  -0.00012842            0.00        0.00      -18.89

     Energy error            =      1.2E-06
     Gradient error          =      0.0E+00
     Cell gradient error     =      6.5E-08


     number of scf cycles    =   5
     number of bfgs steps    =   4

     enthalpy old            =     -22.7778934893 Ry
     enthalpy new            =     -22.7778946601 Ry

     CASE: enthalpy_new < enthalpy_old

     small trust_radius: resetting bfgs history

     new trust radius        =       0.0000087983 bohr
     new conv_thr            =            1.0E-10 Ry

     new unit-cell volume =    743.21803 a.u.^3 (   110.13355 Ang^3 )
     density =      0.36218 g/cm^3

CELL_PARAMETERS (alat=  4.39000000)
   1.048578074  -0.000000000   0.000000000
  -0.524289037   0.908095250   0.000000000
   0.000000000   0.000000000   9.225512528

ATOMIC_POSITIONS (crystal)
C             0.3333333333        0.6666666667        0.5000000000
C             0.6666666667        0.3333333333        0.5000000000



     Writing output data file ./work/LiC439.save/
     NEW-OLD atomic charge density approx. for the potential
     extrapolated charge    8.00003, renormalised to    8.00000

     total cpu time spent up to now is       17.7 secs

     Self-consistent Calculation

     iteration #  1     ecut=    50.00 Ry     beta= 0.70
     Davidson diagonalization with overlap
     ethr =  1.00E-06,  avg # of iterations =  1.0

     Threshold (ethr) on eigenvalues was too large:
     Diagonalizing with lowered threshold

     Davidson diagonalization with overlap
     ethr =  4.17E-12,  avg # of iterations =  1.8

     total cpu time spent up to now is       18.0 secs

     total energy              =     -22.77789466 Ry
     estimated scf accuracy    <          3.7E-10 Ry

     iteration #  2     ecut=    50.00 Ry     beta= 0.70
     Davidson diagonalization with overlap
     ethr =  4.61E-12,  avg # of iterations =  2.1

     total cpu time spent up to now is       18.1 secs

     total energy              =     -22.77789466 Ry
     estimated scf accuracy    <          1.9E-10 Ry

     iteration #  3     ecut=    50.00 Ry     beta= 0.70
     Davidson diagonalization with overlap
     ethr =  2.35E-12,  avg # of iterations =  1.0

     total cpu time spent up to now is       18.2 secs

     End of self-consistent calculation

          k = 0.0000 0.0000 0.0000 (  3955 PWs)   bands (ev):

   -23.9933 -12.0191  -7.1578  -7.1578  -0.9898  -0.2094   0.5709   0.9282

          k = 0.0000 0.0734 0.0000 (  3959 PWs)   bands (ev):

   -23.8859 -11.8899  -7.5910  -7.3896  -0.8438  -0.0612   0.7201   1.0768

          k = 0.0000 0.1468 0.0000 (  3993 PWs)   bands (ev):

   -23.5648 -11.5042  -8.7561  -7.9798  -0.4057   0.3830   1.1675   1.5221

          k = 0.0000 0.2202 0.0000 (  4013 PWs)   bands (ev):

   -23.0318 -10.8684 -10.3401  -8.7152   0.3242   1.1211   1.9130   2.2620

          k = 0.0000 0.2937 0.0000 (  4009 PWs)   bands (ev):

   -22.2907 -12.1113  -9.9972  -9.4288   1.3438   2.1254   2.8930   2.9552

          k = 0.0000 0.3671 0.0000 (  4034 PWs)   bands (ev):

   -21.3506 -13.9161 -10.0194  -8.9272   0.9292   2.6455   3.5044   3.9074

          k = 0.0000 0.4405 0.0000 (  4044 PWs)   bands (ev):

   -20.2258 -15.6544 -10.4339  -7.7435  -0.8894   3.6791   4.2797   5.1103

          k = 0.0000 0.5139 0.0000 (  4046 PWs)   bands (ev):

   -18.9815 -17.2145 -10.6481  -6.7498  -2.2217   3.5964   6.1167   6.9893

          k = 0.0636 0.1101 0.0000 (  3979 PWs)   bands (ev):

   -23.6716 -11.6325  -8.3384  -7.8532  -0.5516   0.2350   1.0183   1.3737

          k = 0.0636 0.1835 0.0000 (  4005 PWs)   bands (ev):

   -23.2446 -11.1213  -9.6196  -8.6113   0.0327   0.8265   1.6150   1.9668

          k = 0.0636 0.2569 0.0000 (  4005 PWs)   bands (ev):

   -22.6076 -11.2366 -10.3664  -9.3960   0.9082   1.7084   2.5096   2.8485

          k = 0.0636 0.3304 0.0000 (  4008 PWs)   bands (ev):

   -21.7662 -12.9923 -10.0788  -9.3918   1.8057   2.0715   2.9185   3.6992

          k = 0.0636 0.4038 0.0000 (  4033 PWs)   bands (ev):

   -20.7334 -14.7503 -10.5978  -8.2472  -0.0517   3.5081   4.2911   4.3710

          k = 0.0636 0.4772 0.0000 (  4041 PWs)   bands (ev):

   -19.5333 -16.4081 -10.9185  -7.0902  -1.6818   4.1090   5.2665   6.1084

          k = 0.0636 0.5506 0.0000 (  4049 PWs)   bands (ev):

   -18.5181 -17.5797 -11.0284  -6.4780  -2.4591   4.0624   7.1616   7.3166

          k = 0.1272 0.2202 0.0000 (  4019 PWs)   bands (ev):

   -22.7135 -10.7368 -10.4913  -9.6150   0.7632   1.5639   2.3611   2.7067

          k = 0.1272 0.2937 0.0000 (  4014 PWs)   bands (ev):

   -21.9759 -12.1593 -10.5500  -9.6276   1.7834   2.3770   2.6118   3.4050

          k = 0.1272 0.3671 0.0000 (  4022 PWs)   bands (ev):

   -21.0408 -13.7868 -11.2415  -8.5633   0.6484   3.0886   3.9102   4.7440

          k = 0.1272 0.4405 0.0000 (  4053 PWs)   bands (ev):

   -19.9269 -15.4393 -11.6975  -7.3794  -1.0464   4.6639   5.4825   5.4876

          k = 0.1272 0.5139 0.0000 (  4065 PWs)   bands (ev):

   -18.6998 -16.9539 -11.9247  -6.3626  -2.3377   5.3564   6.5284   7.2283

          k = 0.1907 0.3304 0.0000 (  4023 PWs)   bands (ev):

   -21.1451 -13.1794 -11.7678  -8.6705   0.9392   2.9452   3.7493   4.5976

          k = 0.1907 0.4038 0.0000 (  4060 PWs)   bands (ev):

   -20.1275 -14.4959 -12.6085  -7.5405  -0.5947   4.3855   5.1551   6.0847

          k = 0.1907 0.4772 0.0000 (  4076 PWs)   bands (ev):

   -18.9533 -15.9657 -13.0387  -6.3636  -2.0383   6.0826   6.6312   7.1720

          k = 0.1907 0.5506 0.0000 (  4071 PWs)   bands (ev):

   -17.9722 -17.0606 -13.1715  -5.6888  -2.8061   7.0961   7.8930   8.1098

          k = 0.2543 0.4405 0.0000 (  4091 PWs)   bands (ev):

   -19.0461 -15.2759 -13.7817  -6.3789  -1.8822   5.9431   6.3902   7.6712

          k = 0.2543 0.5139 0.0000 (  4105 PWs)   bands (ev):

   -17.8720 -16.3585 -14.3350  -5.2590  -3.0590   6.7482   7.6907   8.8388

          k = 0.3179 0.5506 0.0000 (  4095 PWs)   bands (ev):

   -16.8875 -16.8875 -15.0007  -4.1361  -4.1361   6.5397   8.9984   9.5217

     the Fermi energy is    -4.1361 ev

!    total energy              =     -22.77789466 Ry
     estimated scf accuracy    <          3.4E-11 Ry
     smearing contrib. (-TS)   =      -0.00005015 Ry
     internal energy E=F+TS    =     -22.77784451 Ry

     The total energy is F=E-TS. E is the sum of the following terms:
     one-electron contribution =    -396.43209277 Ry
     hartree contribution      =     198.85984601 Ry
     xc contribution           =      -7.06216596 Ry
     ewald contribution        =     181.85656821 Ry

     convergence has been achieved in   3 iterations

     Forces acting on atoms (cartesian axes, Ry/au):

     atom    1 type  1   force =     0.00000000    0.00000000    0.00000000
     atom    2 type  1   force =     0.00000000    0.00000000    0.00000000

     Total force =     0.000000     Total SCF correction =     0.000000


     Computing stress (Cartesian axis) and pressure

          total   stress  (Ry/bohr**3)                   (kbar)     P=       -6.29
   0.00000004   0.00000000   0.00000000            0.01        0.00        0.00
   0.00000000   0.00000004  -0.00000000            0.00        0.01       -0.00
   0.00000000   0.00000000  -0.00012843            0.00        0.00      -18.89

     Energy error            =      1.3E-10
     Gradient error          =      0.0E+00
     Cell gradient error     =      4.1E-08


     number of scf cycles    =   6
     number of bfgs steps    =   5

     enthalpy old            =     -22.7778946601 Ry
     enthalpy new            =     -22.7778946602 Ry

     CASE: enthalpy_new < enthalpy_old

     Message from routine bfgs:
     history already reset at previous step: stopping
     small trust_radius: resetting bfgs history

     new trust radius        =       0.0000055529 bohr
     new conv_thr            =            1.0E-10 Ry

     new unit-cell volume =    743.21955 a.u.^3 (   110.13377 Ang^3 )
     density =      0.36218 g/cm^3

CELL_PARAMETERS (alat=  4.39000000)
   1.048579142  -0.000000000   0.000000000
  -0.524289571   0.908096175   0.000000000
   0.000000000   0.000000000   9.225512528

ATOMIC_POSITIONS (crystal)
C             0.3333333333        0.6666666667        0.5000000000
C             0.6666666667        0.3333333333        0.5000000000



     Writing output data file ./work/LiC439.save/
     NEW-OLD atomic charge density approx. for the potential
     extrapolated charge    8.00002, renormalised to    8.00000

     total cpu time spent up to now is       18.3 secs

     Self-consistent Calculation

     iteration #  1     ecut=    50.00 Ry     beta= 0.70
     Davidson diagonalization with overlap
     ethr =  1.00E-06,  avg # of iterations =  1.0

     Threshold (ethr) on eigenvalues was too large:
     Diagonalizing with lowered threshold

     Davidson diagonalization with overlap
     ethr =  1.67E-12,  avg # of iterations =  1.9

     total cpu time spent up to now is       18.5 secs

     total energy              =     -22.77789466 Ry
     estimated scf accuracy    <          1.5E-10 Ry

     iteration #  2     ecut=    50.00 Ry     beta= 0.70
     Davidson diagonalization with overlap
     ethr =  1.85E-12,  avg # of iterations =  2.1

     total cpu time spent up to now is       18.6 secs

     End of self-consistent calculation

          k = 0.0000 0.0000 0.0000 (  3955 PWs)   bands (ev):

   -23.9933 -12.0191  -7.1578  -7.1578  -0.9899  -0.2094   0.5709   0.9282

          k = 0.0000 0.0734 0.0000 (  3959 PWs)   bands (ev):

   -23.8859 -11.8899  -7.5910  -7.3896  -0.8438  -0.0612   0.7201   1.0768

          k = 0.0000 0.1468 0.0000 (  3993 PWs)   bands (ev):

   -23.5648 -11.5042  -8.7562  -7.9798  -0.4057   0.3830   1.1674   1.5221

          k = 0.0000 0.2202 0.0000 (  4013 PWs)   bands (ev):

   -23.0318 -10.8684 -10.3402  -8.7152   0.3242   1.1211   1.9130   2.2620

          k = 0.0000 0.2937 0.0000 (  4009 PWs)   bands (ev):

   -22.2908 -12.1113  -9.9972  -9.4289   1.3438   2.1254   2.8930   2.9552

          k = 0.0000 0.3671 0.0000 (  4034 PWs)   bands (ev):

[...]

   -18.6999 -16.9539 -11.9248  -6.3626  -2.3378   5.3564   6.5284   7.2282

          k = 0.1907 0.3304 0.0000 (  4023 PWs)   bands (ev):

   -21.1451 -13.1795 -11.7678  -8.6705   0.9391   2.9452   3.7493   4.5976

          k = 0.1907 0.4038 0.0000 (  4060 PWs)   bands (ev):

   -20.1275 -14.4959 -12.6085  -7.5406  -0.5947   4.3855   5.1550   6.0847

          k = 0.1907 0.4772 0.0000 (  4076 PWs)   bands (ev):

   -18.9534 -15.9658 -13.0387  -6.3637  -2.0383   6.0825   6.6311   7.1719

          k = 0.1907 0.5506 0.0000 (  4071 PWs)   bands (ev):

   -17.9722 -17.0606 -13.1716  -5.6889  -2.8061   7.0960   7.8930   8.1097

          k = 0.2543 0.4405 0.0000 (  4091 PWs)   bands (ev):

   -19.0462 -15.2760 -13.7817  -6.3790  -1.8822   5.9431   6.3902   7.6711

          k = 0.2543 0.5139 0.0000 (  4105 PWs)   bands (ev):

   -17.8720 -16.3585 -14.3351  -5.2590  -3.0590   6.7482   7.6907   8.8387

          k = 0.3179 0.5506 0.0000 (  4095 PWs)   bands (ev):

   -16.8875 -16.8875 -15.0007  -4.1361  -4.1361   6.5397   8.9983   9.5216

     the Fermi energy is    -4.1361 ev

!    total energy              =     -22.77789466 Ry
     estimated scf accuracy    <          7.6E-11 Ry
     smearing contrib. (-TS)   =      -0.00005015 Ry
     internal energy E=F+TS    =     -22.77784451 Ry

     The total energy is F=E-TS. E is the sum of the following terms:
     one-electron contribution =    -396.43128319 Ry
     hartree contribution      =     198.85944396 Ry
     xc contribution           =      -7.06216233 Ry
     ewald contribution        =     181.85615705 Ry

     convergence has been achieved in   2 iterations

     Forces acting on atoms (cartesian axes, Ry/au):

     atom    1 type  1   force =     0.00000000    0.00000000    0.00000000
     atom    2 type  1   force =    -0.00000000   -0.00000000    0.00000000

     Total force =     0.000000     Total SCF correction =     0.000000


     Computing stress (Cartesian axis) and pressure

          total   stress  (Ry/bohr**3)                   (kbar)     P=       -6.29
   0.00000002   0.00000000  -0.00000000            0.00        0.00       -0.00
   0.00000000   0.00000002  -0.00000000            0.00        0.00       -0.00
  -0.00000000  -0.00000000  -0.00012842           -0.00       -0.00      -18.89

     Message from routine bfgs:
     history already reset at previous step: stopping
     Energy error            =      6.7E-11
     Gradient error          =      1.6E-26
     Cell gradient error     =      2.3E-08


     bfgs converged in   7 scf cycles and   6 bfgs steps
     (criteria: energy <  1.0E-04 Ry, force <  1.0E-08Ry/Bohr, cell <  1.0E-03kbar)

     End of BFGS Geometry Optimization

     Final enthalpy =     -22.7778946603 Ry

     File ./work/LiC439.bfgs deleted, as requested
Begin final coordinates
     new unit-cell volume =    743.21955 a.u.^3 (   110.13377 Ang^3 )
     density =      0.36218 g/cm^3

CELL_PARAMETERS (alat=  4.39000000)
   1.048579142  -0.000000000   0.000000000
  -0.524289571   0.908096175   0.000000000
   0.000000000   0.000000000   9.225512528

ATOMIC_POSITIONS (crystal)
C             0.3333333333        0.6666666667        0.5000000000
C             0.6666666667        0.3333333333        0.5000000000
End final coordinates



     Writing output data file ./work/LiC439.save/

     Final scf calculation at the relaxed structure.
     The G-vectors are recalculated for the final unit cell
     Results may differ from those at the preceding step.
 
     Parallelization info
     --------------------
     sticks:   dense  smooth     PW     G-vecs:    dense   smooth      PW
     Min           9       9      2                 1105     1105     170
     Max          10      10      3                 1130     1130     215
     Sum         295     295     91                35601    35601    6361
 


     bravais-lattice index     =            4
     lattice parameter (alat)  =       4.3900  a.u.
     unit-cell volume          =     743.2195 (a.u.)^3
     number of atoms/cell      =            2
     number of atomic types    =            1
     number of electrons       =         8.00
     number of Kohn-Sham states=            8
     kinetic-energy cutoff     =      50.0000  Ry
     charge density cutoff     =     200.0000  Ry
     scf convergence threshold =      1.0E-10
     mixing beta               =       0.7000
     number of iterations used =            8  plain     mixing
     press convergence thresh. =      1.0E-03
     Exchange-correlation= PBE
                           (   1   4   3   4   0   0   0)

     celldm(1)=   4.390000  celldm(2)=   0.000000  celldm(3)=   9.225513
     celldm(4)=   0.000000  celldm(5)=   0.000000  celldm(6)=   0.000000

     crystal axes: (cart. coord. in units of alat)
               a(1) = (   1.048579  -0.000000   0.000000 )  
               a(2) = (  -0.524290   0.908096   0.000000 )  
               a(3) = (   0.000000   0.000000   9.225513 )  

     reciprocal axes: (cart. coord. in units 2 pi/alat)
               b(1) = (  0.953671  0.550602  0.000000 )  
               b(2) = (  0.000000  1.101205  0.000000 )  
               b(3) = (  0.000000  0.000000  0.108395 )  


     PseudoPot. # 1 for C  read from file:
     /home/yhkim/qe-6.7/pseudo/ONCV1/1.2/C_ONCV_PBE-1.2.upf
     MD5 check sum: 1a5f83a7b1f58d24996abe00ed223ac6
     Pseudo is Norm-conserving, Zval =  4.0
     Generated using ONCVPSP code by D. R. Hamann
     Using radial grid of  602 points,  4 beta functions with: 
                l(1) =   0
                l(2) =   0
                l(3) =   1
                l(4) =   1

     atomic species   valence    mass     pseudopotential
        C              4.00    12.01070     C ( 1.00)

     24 Sym. Ops., with inversion, found



   Cartesian axes

     site n.     atom                  positions (alat units)
         1           C   tau(   1) = (  -0.0000000   0.6053974   4.6127563  )
         2           C   tau(   2) = (   0.5242896   0.3026987   4.6127563  )

     number of k points=    27  Methfessel-Paxton smearing, width (Ry)=  0.0100
                       cart. coord. in units 2pi/alat
        k(    1) = (   0.0000000   0.0000000   0.0000000), wk =   0.0088889
        k(    2) = (   0.0000000   0.0734137   0.0000000), wk =   0.0533333
        k(    3) = (   0.0000000   0.1468273   0.0000000), wk =   0.0533333
        k(    4) = (   0.0000000   0.2202410   0.0000000), wk =   0.0533333
        k(    5) = (   0.0000000   0.2936547   0.0000000), wk =   0.0533333
        k(    6) = (   0.0000000   0.3670683   0.0000000), wk =   0.0533333
        k(    7) = (   0.0000000   0.4404820   0.0000000), wk =   0.0533333
        k(    8) = (   0.0000000   0.5138956   0.0000000), wk =   0.0533333
        k(    9) = (   0.0635781   0.1101205   0.0000000), wk =   0.0533333
        k(   10) = (   0.0635781   0.1835342   0.0000000), wk =   0.1066667
        k(   11) = (   0.0635781   0.2569478   0.0000000), wk =   0.1066667
        k(   12) = (   0.0635781   0.3303615   0.0000000), wk =   0.1066667
        k(   13) = (   0.0635781   0.4037751   0.0000000), wk =   0.1066667
        k(   14) = (   0.0635781   0.4771888   0.0000000), wk =   0.1066667
        k(   15) = (   0.0635781   0.5506025   0.0000000), wk =   0.0533333
        k(   16) = (   0.1271562   0.2202410   0.0000000), wk =   0.0533333
        k(   17) = (   0.1271562   0.2936547   0.0000000), wk =   0.1066667
        k(   18) = (   0.1271562   0.3670683   0.0000000), wk =   0.1066667
        k(   19) = (   0.1271562   0.4404820   0.0000000), wk =   0.1066667
        k(   20) = (   0.1271562   0.5138956   0.0000000), wk =   0.1066667
        k(   21) = (   0.1907343   0.3303615   0.0000000), wk =   0.0533333
        k(   22) = (   0.1907343   0.4037751   0.0000000), wk =   0.1066667
        k(   23) = (   0.1907343   0.4771888   0.0000000), wk =   0.1066667
        k(   24) = (   0.1907343   0.5506025   0.0000000), wk =   0.0533333
        k(   25) = (   0.2543124   0.4404820   0.0000000), wk =   0.0533333
        k(   26) = (   0.2543124   0.5138956   0.0000000), wk =   0.1066667
        k(   27) = (   0.3178905   0.5506025   0.0000000), wk =   0.0177778

     Dense  grid:    35601 G-vectors     FFT dimensions: (  24,  24, 192)

     Estimated max dynamical RAM per process >       1.94 MB

     Estimated total dynamical RAM >      62.16 MB
 ----2D----2D----2D----2D----2D----2D----2D----2D----2D----2D----2D----2D
  The code is running with the 2D cutoff
  Please refer to:
  Sohier, T., Calandra, M., & Mauri, F. (2017), 
  Density functional perturbation theory for gated two-dimensional heterostructu
 res:
  Theoretical developments and application to flexural phonons in graphene.
  Physical Review B, 96(7), 75448. https://doi.org/10.1103/PhysRevB.96.075448
 ----2D----2D----2D----2D----2D----2D----2D----2D----2D----2D----2D----2D

     Initial potential from superposition of free atoms

     starting charge    7.98607, renormalised to    8.00000

     negative rho (up, down):  1.105E-04 0.000E+00
     Starting wfcs are random

     total cpu time spent up to now is       18.7 secs

     Self-consistent Calculation

     iteration #  1     ecut=    50.00 Ry     beta= 0.70
     Davidson diagonalization with overlap
     c_bands:  5 eigenvalues not converged
     c_bands:  3 eigenvalues not converged
     c_bands:  5 eigenvalues not converged
     c_bands:  4 eigenvalues not converged
     c_bands:  4 eigenvalues not converged
     c_bands:  4 eigenvalues not converged
     c_bands:  2 eigenvalues not converged
     c_bands:  2 eigenvalues not converged
     c_bands:  2 eigenvalues not converged
     c_bands:  5 eigenvalues not converged
     c_bands:  4 eigenvalues not converged
     c_bands:  4 eigenvalues not converged
     c_bands:  3 eigenvalues not converged
     c_bands:  2 eigenvalues not converged
     c_bands:  3 eigenvalues not converged
     c_bands:  4 eigenvalues not converged
     c_bands:  4 eigenvalues not converged
     c_bands:  3 eigenvalues not converged
     c_bands:  3 eigenvalues not converged
     c_bands:  3 eigenvalues not converged
     c_bands:  4 eigenvalues not converged
     c_bands:  3 eigenvalues not converged
     c_bands:  3 eigenvalues not converged
     c_bands:  3 eigenvalues not converged
     c_bands:  3 eigenvalues not converged
     c_bands:  3 eigenvalues not converged
     c_bands:  3 eigenvalues not converged
     ethr =  1.00E-06,  avg # of iterations = 21.5

     negative rho (up, down):  2.185E-05 0.000E+00

     total cpu time spent up to now is       19.5 secs

     total energy              =     -22.75688225 Ry
     estimated scf accuracy    <       0.21082626 Ry

     iteration #  2     ecut=    50.00 Ry     beta= 0.70
     Davidson diagonalization with overlap
     ethr =  2.64E-03,  avg # of iterations =  2.4

     negative rho (up, down):  2.635E-06 0.000E+00

     total cpu time spent up to now is       19.6 secs

     total energy              =     -22.78885400 Ry
     estimated scf accuracy    <       0.00237913 Ry

     iteration #  3     ecut=    50.00 Ry     beta= 0.70
     Davidson diagonalization with overlap
     ethr =  2.97E-05,  avg # of iterations =  9.4

     total cpu time spent up to now is       19.8 secs

     total energy              =     -22.78926869 Ry
     estimated scf accuracy    <       0.00017613 Ry

     iteration #  4     ecut=    50.00 Ry     beta= 0.70
     Davidson diagonalization with overlap
     c_bands:  1 eigenvalues not converged
     ethr =  2.20E-06,  avg # of iterations =  6.0

     total cpu time spent up to now is       19.9 secs

     total energy              =     -22.78928309 Ry
     estimated scf accuracy    <       0.00000122 Ry

     iteration #  5     ecut=    50.00 Ry     beta= 0.70
     Davidson diagonalization with overlap
     c_bands:  1 eigenvalues not converged
     ethr =  1.52E-08,  avg # of iterations =  4.4

     total cpu time spent up to now is       20.1 secs

     total energy              =     -22.78928451 Ry
     estimated scf accuracy    <       0.00000004 Ry

     iteration #  6     ecut=    50.00 Ry     beta= 0.70
     Davidson diagonalization with overlap
     ethr =  4.57E-10,  avg # of iterations =  2.9

     total cpu time spent up to now is       20.2 secs

     total energy              =     -22.78928452 Ry
     estimated scf accuracy    <          9.1E-10 Ry

     iteration #  7     ecut=    50.00 Ry     beta= 0.70
     Davidson diagonalization with overlap
     ethr =  1.14E-11,  avg # of iterations =  3.0

     total cpu time spent up to now is       20.3 secs

     End of self-consistent calculation

          k = 0.0000 0.0000 0.0000 (  4399 PWs)   bands (ev):

   -23.9780 -12.0144  -7.2046  -7.2046  -0.9872  -0.2042   0.5820   0.9373

          k = 0.0000 0.0734 0.0000 (  4407 PWs)   bands (ev):

   -23.8708 -11.8855  -7.6344  -7.4358  -0.8412  -0.0560   0.7311   1.0859

          k = 0.0000 0.1468 0.0000 (  4405 PWs)   bands (ev):

   -23.5500 -11.4997  -8.7752  -8.0185  -0.4032   0.3881   1.1784   1.5312

          k = 0.0000 0.2202 0.0000 (  4413 PWs)   bands (ev):

   -23.0181 -10.8628 -10.3488  -8.7483   0.3264   1.1262   1.9239   2.2713

          k = 0.0000 0.2937 0.0000 (  4439 PWs)   bands (ev):

   -22.2792 -12.1158  -9.9928  -9.4570   1.3454   2.1295   2.8884   2.9659

          k = 0.0000 0.3671 0.0000 (  4451 PWs)   bands (ev):

   -21.3403 -13.9152 -10.0472  -8.9230   0.9284   2.6464   3.5091   3.9101

          k = 0.0000 0.4405 0.0000 (  4459 PWs)   bands (ev):

   -20.2158 -15.6512 -10.4629  -7.7395  -0.8897   3.6851   4.2824   5.1147

          k = 0.0000 0.5139 0.0000 (  4459 PWs)   bands (ev):

   -18.9715 -17.2108 -10.6768  -6.7460  -2.2211   3.6056   6.1174   6.9928

          k = 0.0636 0.1101 0.0000 (  4401 PWs)   bands (ev):

   -23.6567 -11.6272  -8.3646  -7.8970  -0.5491   0.2402   1.0294   1.3829

          k = 0.0636 0.1835 0.0000 (  4418 PWs)   bands (ev):

   -23.2306 -11.1167  -9.6303  -8.6465   0.0350   0.8316   1.6260   1.9760

          k = 0.0636 0.2569 0.0000 (  4422 PWs)   bands (ev):

   -22.5952 -11.2413 -10.3621  -9.4258   0.9100   1.7132   2.5205   2.8578

          k = 0.0636 0.3304 0.0000 (  4446 PWs)   bands (ev):

   -21.7562 -12.9946 -10.1065  -9.3875   1.8010   2.0727   2.9232   3.7096

          k = 0.0636 0.4038 0.0000 (  4452 PWs)   bands (ev):

   -20.7236 -14.7487 -10.6227  -8.2441  -0.0525   3.5085   4.2939   4.3754

          k = 0.0636 0.4772 0.0000 (  4458 PWs)   bands (ev):

   -19.5236 -16.4052 -10.9438  -7.0880  -1.6825   4.1138   5.2678   6.1121

          k = 0.0636 0.5506 0.0000 (  4426 PWs)   bands (ev):

   -18.5056 -17.5781 -11.0516  -6.4738  -2.4572   4.0687   7.1625   7.3165

          k = 0.1272 0.2202 0.0000 (  4411 PWs)   bands (ev):

   -22.7009 -10.7429 -10.4856  -9.6396   0.7651   1.5690   2.3720   2.7162

          k = 0.1272 0.2937 0.0000 (  4430 PWs)   bands (ev):

   -21.9656 -12.1619 -10.5697  -9.6238   1.7847   2.3733   2.6157   3.4158

          k = 0.1272 0.3671 0.0000 (  4447 PWs)   bands (ev):

   -21.0325 -13.7880 -11.2578  -8.5603   0.6467   3.0894   3.9145   4.7550

          k = 0.1272 0.4405 0.0000 (  4463 PWs)   bands (ev):

   -19.9175 -15.4374 -11.7122  -7.3775  -1.0480   4.6641   5.4811   5.4912

          k = 0.1272 0.5139 0.0000 (  4455 PWs)   bands (ev):

   -18.6899 -16.9497 -11.9391  -6.3607  -2.3371   5.3558   6.5289   7.2304

          k = 0.1907 0.3304 0.0000 (  4439 PWs)   bands (ev):

   -21.1361 -13.1811 -11.7807  -8.6676   0.9344   2.9462   3.7535   4.6084

          k = 0.1907 0.4038 0.0000 (  4433 PWs)   bands (ev):

   -20.1187 -14.4927 -12.6158  -7.5379  -0.5965   4.3861   5.1585   6.0954

          k = 0.1907 0.4772 0.0000 (  4446 PWs)   bands (ev):

   -18.9443 -15.9607 -13.0452  -6.3611  -2.0396   6.0823   6.6331   7.1653

          k = 0.1907 0.5506 0.0000 (  4425 PWs)   bands (ev):

   -17.9615 -17.0571 -13.1775  -5.6868  -2.8059   7.0899   7.3005   7.8913

          k = 0.2543 0.4405 0.0000 (  4443 PWs)   bands (ev):

   -19.0370 -15.2694 -13.7873  -6.3757  -1.8843   5.9431   6.3923   7.6825

          k = 0.2543 0.5139 0.0000 (  4430 PWs)   bands (ev):

   -17.8620 -16.3510 -14.3380  -5.2569  -3.0589   6.7508   7.6890   8.8291

          k = 0.3179 0.5506 0.0000 (  4395 PWs)   bands (ev):

   -16.8769 -16.8769 -15.0059  -4.1359  -4.1359   6.5430   8.9918   8.9918

     the Fermi energy is    -4.1359 ev

!    total energy              =     -22.78928452 Ry
     estimated scf accuracy    <          1.0E-11 Ry
     smearing contrib. (-TS)   =      -0.00005015 Ry
     internal energy E=F+TS    =     -22.78923437 Ry

     The total energy is F=E-TS. E is the sum of the following terms:
     one-electron contribution =    -396.45235521 Ry
     hartree contribution      =     198.86968600 Ry
     xc contribution           =      -7.06272229 Ry
     ewald contribution        =     181.85615713 Ry

     convergence has been achieved in   7 iterations

     Forces acting on atoms (cartesian axes, Ry/au):

     atom    1 type  1   force =     0.00000000    0.00000000    0.00000000
     atom    2 type  1   force =     0.00000000    0.00000000    0.00000000

     Total force =     0.000000     Total SCF correction =     0.000000


     Computing stress (Cartesian axis) and pressure

          total   stress  (Ry/bohr**3)                   (kbar)     P=        0.10
   0.00005666  -0.00000000  -0.00000000            8.34       -0.00       -0.00
  -0.00000000   0.00005666   0.00000000           -0.00        8.34        0.00
   0.00000000   0.00000000  -0.00011130            0.00        0.00      -16.37


     Writing output data file ./work/LiC439.save/
 
     init_run     :      0.16s CPU      0.18s WALL (       2 calls)
     electrons    :     18.29s CPU     19.79s WALL (       8 calls)
     update_pot   :      0.07s CPU      0.07s WALL (       6 calls)
     forces       :      0.06s CPU      0.06s WALL (       8 calls)
     stress       :      0.16s CPU      0.17s WALL (       8 calls)

     Called by init_run:
     wfcinit      :      0.10s CPU      0.11s WALL (       2 calls)
     potinit      :      0.03s CPU      0.04s WALL (       2 calls)
     hinit0       :      0.01s CPU      0.01s WALL (       2 calls)

     Called by electrons:
     c_bands      :     16.14s CPU     17.37s WALL (     105 calls)
     sum_band     :      1.91s CPU      2.04s WALL (     105 calls)
     v_of_rho     :      0.18s CPU      0.20s WALL (     110 calls)
     mix_rho      :      0.04s CPU      0.04s WALL (     105 calls)

     Called by c_bands:
     init_us_2    :      0.10s CPU      0.11s WALL (    6156 calls)
     cegterg      :     15.85s CPU     17.03s WALL (    2882 calls)

     Called by *egterg:
     cdiaghg      :      1.44s CPU      1.55s WALL (   15984 calls)
     h_psi        :     13.38s CPU     14.37s WALL (   16283 calls)
     g_psi        :      0.03s CPU      0.04s WALL (   13347 calls)

     Called by h_psi:
     h_psi:calbec :      0.42s CPU      0.45s WALL (   16283 calls)
     vloc_psi     :     12.71s CPU     13.65s WALL (   16283 calls)
     add_vuspsi   :      0.12s CPU      0.13s WALL (   16283 calls)

     General routines
     calbec       :      0.44s CPU      0.47s WALL (   17363 calls)
     fft          :      0.16s CPU      0.17s WALL (    1165 calls)
     ffts         :      0.01s CPU      0.01s WALL (     105 calls)
     fftw         :     13.81s CPU     14.83s WALL (  192680 calls)
 
     Parallel routines
     fft_scatt_xy :      0.74s CPU      0.79s WALL (  193950 calls)
     fft_scatt_yz :      5.85s CPU      6.27s WALL (  193950 calls)
 
     PWSCF        :     18.81s CPU     20.60s WALL

 
   This run was terminated on:  14:12:31  19Jan2024            

=------------------------------------------------------------------------------=
   JOB DONE.
=------------------------------------------------------------------------------=
