
     Program PWSCF v.6.7MaX starts on 19Jan2024 at 14:17:51 

     This program is part of the open-source Quantum ESPRESSO suite
     for quantum simulation of materials; please cite
         "P. Giannozzi et al., J. Phys.:Condens. Matter 21 395502 (2009);
         "P. Giannozzi et al., J. Phys.:Condens. Matter 29 465901 (2017);
          URL http://www.quantum-espresso.org", 
     in publications or presentations arising from this work. More details at
     http://www.quantum-espresso.org/quote

     Parallel version (MPI), running on    32 processors

     MPI processes distributed on     1 nodes
     R & G space division:  proc/nbgrp/npool/nimage =      32
     Waiting for input...
     Reading input from standard input

     Current dimensions of program PWSCF are:
     Max number of different atomic species (ntypx) = 10
     Max number of k-points (npk) =  40000
     Max angular momentum in pseudopotentials (lmaxx) =  3
     Message from routine read_pp_mesh:
     mesh size missing, using the one in header

     Subspace diagonalization in iterative solution of the eigenvalue problem:
     a serial algorithm will be used

 
     Parallelization info
     --------------------
     sticks:   dense  smooth     PW     G-vecs:    dense   smooth      PW
     Min           9       9      3                 1187     1187     207
     Max          10      10      5                 1246     1246     225
     Sum         313     313    109                39219    39219    6943
 


     bravais-lattice index     =            4
     lattice parameter (alat)  =       4.8500  a.u.
     unit-cell volume          =     825.0288 (a.u.)^3
     number of atoms/cell      =            2
     number of atomic types    =            1
     number of electrons       =         8.00
     number of Kohn-Sham states=            8
     kinetic-energy cutoff     =      50.0000  Ry
     charge density cutoff     =     200.0000  Ry
     scf convergence threshold =      1.0E-08
     mixing beta               =       0.7000
     number of iterations used =            8  plain     mixing
     energy convergence thresh.=      1.0E-04
     force convergence thresh. =      1.0E-08
     press convergence thresh. =      1.0E-03
     Exchange-correlation= PBE
                           (   1   4   3   4   0   0   0)
     nstep                     =           50


     celldm(1)=   4.850000  celldm(2)=   0.000000  celldm(3)=   8.350515
     celldm(4)=   0.000000  celldm(5)=   0.000000  celldm(6)=   0.000000

     crystal axes: (cart. coord. in units of alat)
               a(1) = (   1.000000   0.000000   0.000000 )  
               a(2) = (  -0.500000   0.866025   0.000000 )  
               a(3) = (   0.000000   0.000000   8.350515 )  

     reciprocal axes: (cart. coord. in units 2 pi/alat)
               b(1) = (  1.000000  0.577350  0.000000 )  
               b(2) = (  0.000000  1.154701  0.000000 )  
               b(3) = (  0.000000  0.000000  0.119753 )  


     PseudoPot. # 1 for C  read from file:
     /home/yhkim/qe-6.7/pseudo/ONCV1/1.2/C_ONCV_PBE-1.2.upf
     MD5 check sum: 1a5f83a7b1f58d24996abe00ed223ac6
     Pseudo is Norm-conserving, Zval =  4.0
     Generated using ONCVPSP code by D. R. Hamann
     Using radial grid of  602 points,  4 beta functions with: 
                l(1) =   0
                l(2) =   0
                l(3) =   1
                l(4) =   1

     atomic species   valence    mass     pseudopotential
        C              4.00    12.01070     C ( 1.00)

     24 Sym. Ops., with inversion, found



   Cartesian axes

     site n.     atom                  positions (alat units)
         1           C   tau(   1) = (  -0.0000000   0.5773503   4.1752577  )
         2           C   tau(   2) = (   0.5000000   0.2886751   4.1752577  )

     number of k points=    27  Methfessel-Paxton smearing, width (Ry)=  0.0100
                       cart. coord. in units 2pi/alat
        k(    1) = (   0.0000000   0.0000000   0.0000000), wk =   0.0088889
        k(    2) = (   0.0000000   0.0769800   0.0000000), wk =   0.0533333
        k(    3) = (   0.0000000   0.1539601   0.0000000), wk =   0.0533333
        k(    4) = (   0.0000000   0.2309401   0.0000000), wk =   0.0533333
        k(    5) = (   0.0000000   0.3079201   0.0000000), wk =   0.0533333
        k(    6) = (   0.0000000   0.3849002   0.0000000), wk =   0.0533333
        k(    7) = (   0.0000000   0.4618802   0.0000000), wk =   0.0533333
        k(    8) = (   0.0000000   0.5388603   0.0000000), wk =   0.0533333
        k(    9) = (   0.0666667   0.1154701   0.0000000), wk =   0.0533333
        k(   10) = (   0.0666667   0.1924501   0.0000000), wk =   0.1066667
        k(   11) = (   0.0666667   0.2694301   0.0000000), wk =   0.1066667
        k(   12) = (   0.0666667   0.3464102   0.0000000), wk =   0.1066667
        k(   13) = (   0.0666667   0.4233902   0.0000000), wk =   0.1066667
        k(   14) = (   0.0666667   0.5003702   0.0000000), wk =   0.1066667
        k(   15) = (   0.0666667   0.5773503   0.0000000), wk =   0.0533333
        k(   16) = (   0.1333333   0.2309401   0.0000000), wk =   0.0533333
        k(   17) = (   0.1333333   0.3079201   0.0000000), wk =   0.1066667
        k(   18) = (   0.1333333   0.3849002   0.0000000), wk =   0.1066667
        k(   19) = (   0.1333333   0.4618802   0.0000000), wk =   0.1066667
        k(   20) = (   0.1333333   0.5388603   0.0000000), wk =   0.1066667
        k(   21) = (   0.2000000   0.3464102   0.0000000), wk =   0.0533333
        k(   22) = (   0.2000000   0.4233902   0.0000000), wk =   0.1066667
        k(   23) = (   0.2000000   0.5003702   0.0000000), wk =   0.1066667
        k(   24) = (   0.2000000   0.5773503   0.0000000), wk =   0.0533333
        k(   25) = (   0.2666667   0.4618802   0.0000000), wk =   0.0533333
        k(   26) = (   0.2666667   0.5388603   0.0000000), wk =   0.1066667
        k(   27) = (   0.3333333   0.5773503   0.0000000), wk =   0.0177778

     Dense  grid:    39219 G-vectors     FFT dimensions: (  24,  24, 192)

     Estimated max dynamical RAM per process >       2.05 MB

     Estimated total dynamical RAM >      65.52 MB
 ----2D----2D----2D----2D----2D----2D----2D----2D----2D----2D----2D----2D
  The code is running with the 2D cutoff
  Please refer to:
  Sohier, T., Calandra, M., & Mauri, F. (2017), 
  Density functional perturbation theory for gated two-dimensional heterostructu
 res:
  Theoretical developments and application to flexural phonons in graphene.
  Physical Review B, 96(7), 75448. https://doi.org/10.1103/PhysRevB.96.075448
 ----2D----2D----2D----2D----2D----2D----2D----2D----2D----2D----2D----2D

     Initial potential from superposition of free atoms

     starting charge    7.98607, renormalised to    8.00000

     negative rho (up, down):  1.195E-04 0.000E+00
     Starting wfcs are random

     total cpu time spent up to now is        0.1 secs

     Self-consistent Calculation

     iteration #  1     ecut=    50.00 Ry     beta= 0.70
     Davidson diagonalization with overlap
     ethr =  1.00E-02,  avg # of iterations = 12.2

     negative rho (up, down):  1.248E-07 0.000E+00

     total cpu time spent up to now is        0.6 secs

     total energy              =     -22.75301846 Ry
     estimated scf accuracy    <       0.11547399 Ry

     iteration #  2     ecut=    50.00 Ry     beta= 0.70
     Davidson diagonalization with overlap
     ethr =  1.44E-03,  avg # of iterations =  2.3

     total cpu time spent up to now is        0.7 secs

     total energy              =     -22.77288710 Ry
     estimated scf accuracy    <       0.00198191 Ry

     iteration #  3     ecut=    50.00 Ry     beta= 0.70
     Davidson diagonalization with overlap
     c_bands:  1 eigenvalues not converged
     ethr =  2.48E-05,  avg # of iterations = 10.3

     total cpu time spent up to now is        1.0 secs

     total energy              =     -22.77607021 Ry
     estimated scf accuracy    <       0.00013149 Ry

     iteration #  4     ecut=    50.00 Ry     beta= 0.70
     Davidson diagonalization with overlap
     ethr =  1.64E-06,  avg # of iterations =  6.0

     total cpu time spent up to now is        1.2 secs

     total energy              =     -22.77610820 Ry
     estimated scf accuracy    <       0.00000018 Ry

     iteration #  5     ecut=    50.00 Ry     beta= 0.70
     Davidson diagonalization with overlap
     ethr =  2.26E-09,  avg # of iterations =  4.6

     total cpu time spent up to now is        1.4 secs

     total energy              =     -22.77611084 Ry
     estimated scf accuracy    <       0.00000003 Ry

     iteration #  6     ecut=    50.00 Ry     beta= 0.70
     Davidson diagonalization with overlap
     ethr =  3.21E-10,  avg # of iterations =  2.0

     total cpu time spent up to now is        1.5 secs

     End of self-consistent calculation

          k = 0.0000 0.0000 0.0000 (  5035 PWs)   bands (ev):

   -23.1743 -11.4218  -7.6722  -7.6722  -0.9549  -0.1994   0.5973   0.9505

          k = 0.0000 0.0770 0.0000 (  5011 PWs)   bands (ev):

   -23.0767 -11.3072  -8.0809  -7.8669  -0.8231  -0.0662   0.7317   1.0841

          k = 0.0000 0.1540 0.0000 (  4981 PWs)   bands (ev):

   -22.7849 -10.9672  -9.1575  -8.3654  -0.4278   0.3326   1.1346   1.4841

          k = 0.0000 0.2309 0.0000 (  4953 PWs)   bands (ev):

   -22.3009 -10.6201 -10.4098  -8.9920   0.2303   0.9942   1.8058   2.1466

          k = 0.0000 0.3079 0.0000 (  4947 PWs)   bands (ev):

   -21.6296 -12.2446  -9.6493  -9.6068   1.1484   1.4759   1.9635   2.3391

          k = 0.0000 0.3849 0.0000 (  4934 PWs)   bands (ev):

   -20.7800 -13.8897 -10.1188  -8.7157  -0.1175   2.0081   2.3481   3.1241

          k = 0.0000 0.4619 0.0000 (  4882 PWs)   bands (ev):

   -19.7742 -15.4567 -10.4787  -7.6931  -1.6534   1.7923   3.7664   4.5628

          k = 0.0000 0.5389 0.0000 (  4864 PWs)   bands (ev):

   -18.7252 -16.7948 -10.6657  -6.8496  -2.7700   1.6723   5.4339   6.2311

          k = 0.0667 0.1155 0.0000 (  5003 PWs)   bands (ev):

   -22.8820 -11.0805  -8.7794  -8.2598  -0.5595   0.1997   1.0004   1.3509

          k = 0.0667 0.1925 0.0000 (  4968 PWs)   bands (ev):

   -22.4941 -10.6318  -9.9691  -8.9046  -0.0326   0.7306   1.5377   1.8834

          k = 0.0667 0.2694 0.0000 (  4948 PWs)   bands (ev):

   -21.9164 -11.4560  -9.9709  -9.5838   0.7562   1.5156   2.1804   2.3424

          k = 0.0667 0.3464 0.0000 (  4923 PWs)   bands (ev):

   -21.1554 -13.0590 -10.1802  -9.1199   0.6120   1.8021   2.5923   2.6191

          k = 0.0667 0.4234 0.0000 (  4911 PWs)   bands (ev):

   -20.2249 -14.6522 -10.6349  -8.1263  -0.9593   2.3339   3.1202   3.9012

          k = 0.0667 0.5004 0.0000 (  4880 PWs)   bands (ev):

   -19.1682 -16.1265 -10.9174  -7.1336  -2.3320   2.1609   4.6667   5.4483

          k = 0.0667 0.5774 0.0000 (  4878 PWs)   bands (ev):

   -18.3914 -17.0455 -11.0129  -6.6187  -2.9809   2.0999   6.3523   6.5204

          k = 0.1333 0.2309 0.0000 (  4957 PWs)   bands (ev):

   -22.0124 -11.0306 -10.0794  -9.7581   0.6253   1.3920   2.2096   2.4258

          k = 0.1333 0.3079 0.0000 (  4931 PWs)   bands (ev):

   -21.3445 -12.3436 -10.5779  -9.3243   1.0682   1.5438   2.3151   3.1490

          k = 0.1333 0.3849 0.0000 (  4918 PWs)   bands (ev):

   -20.5007 -13.8151 -11.2022  -8.3981  -0.3987   2.7170   3.4891   3.6568

          k = 0.1333 0.4619 0.0000 (  4904 PWs)   bands (ev):

   -19.5033 -15.2935 -11.6166  -7.3753  -1.8310   3.4187   4.1535   4.8919

          k = 0.1333 0.5389 0.0000 (  4891 PWs)   bands (ev):

   -18.4641 -16.5894 -11.8233  -6.5101  -2.9156   3.3006   5.7958   6.4044

          k = 0.2000 0.3464 0.0000 (  4943 PWs)   bands (ev):

   -20.5933 -13.3351 -11.6188  -8.4905  -0.1772   2.5890   3.3469   4.2219

          k = 0.2000 0.4234 0.0000 (  4919 PWs)   bands (ev):

   -19.6777 -14.5255 -12.3746  -7.5101  -1.4854   3.8819   4.5950   5.1670

          k = 0.2000 0.5004 0.0000 (  4914 PWs)   bands (ev):

   -18.6420 -15.8073 -12.7882  -6.4980  -2.7134   4.9613   5.4242   5.8808

          k = 0.2000 0.5774 0.0000 (  4912 PWs)   bands (ev):

   -17.8730 -16.6722 -12.9187  -5.9271  -3.3599   4.9050   6.4561   6.9403

          k = 0.2667 0.4619 0.0000 (  4921 PWs)   bands (ev):

   -18.7131 -15.3138 -13.3473  -6.5052  -2.6062   5.2705   5.6765   6.6318

          k = 0.2667 0.5389 0.0000 (  4911 PWs)   bands (ev):

   -17.7035 -16.2529 -13.8401  -5.5433  -3.6198   6.0298   6.5341   6.8404

          k = 0.3333 0.5774 0.0000 (  4884 PWs)   bands (ev):

   -16.8412 -16.8412 -14.3090  -4.5682  -4.5682   5.8807   7.3722   7.3722

     the Fermi energy is    -4.5682 ev

!    total energy              =     -22.77611085 Ry
     estimated scf accuracy    <          5.5E-10 Ry
     smearing contrib. (-TS)   =      -0.00005015 Ry
     internal energy E=F+TS    =     -22.77606070 Ry

     The total energy is F=E-TS. E is the sum of the following terms:
     one-electron contribution =    -356.73873925 Ry
     hartree contribution      =     178.91440606 Ry
     xc contribution           =      -6.84320406 Ry
     ewald contribution        =     161.89147655 Ry

     convergence has been achieved in   6 iterations

     Forces acting on atoms (cartesian axes, Ry/au):

     atom    1 type  1   force =     0.00000000    0.00000000    0.00000000
     atom    2 type  1   force =     0.00000000    0.00000000    0.00000000

     Total force =     0.000000     Total SCF correction =     0.000000


     Computing stress (Cartesian axis) and pressure

          total   stress  (Ry/bohr**3)                   (kbar)     P=      -56.67
  -0.00052992  -0.00000000   0.00000000          -77.95       -0.00        0.00
  -0.00000000  -0.00052992   0.00000000           -0.00      -77.95        0.00
   0.00000000   0.00000000  -0.00009583            0.00        0.00      -14.10


     BFGS Geometry Optimization
     Energy error            =      0.0E+00
     Gradient error          =      0.0E+00
     Cell gradient error     =      5.3E-04


     number of scf cycles    =   1
     number of bfgs steps    =   0

     enthalpy new            =     -22.7761108455 Ry

     new trust radius        =       0.0761058746 bohr
     new conv_thr            =       0.0000000100 Ry

     new unit-cell volume =    803.31352 a.u.^3 (   119.03878 Ang^3 )
     density =      0.33509 g/cm^3

CELL_PARAMETERS (alat=  4.85000000)
   0.986751899  -0.000000000   0.000000000
  -0.493375950   0.854552212   0.000000000
   0.000000000   0.000000000   8.350515464

ATOMIC_POSITIONS (crystal)
C             0.3333333333        0.6666666667        0.5000000000
C             0.6666666667        0.3333333333        0.5000000000



     Writing output data file ./work/LiC485.save/
     NEW-OLD atomic charge density approx. for the potential

     negative rho (up, down):  6.089E-06 0.000E+00
     extrapolated charge    7.78412, renormalised to    8.00000

     total cpu time spent up to now is        1.6 secs

     Self-consistent Calculation

     iteration #  1     ecut=    50.00 Ry     beta= 0.70
     Davidson diagonalization with overlap
     c_bands:  2 eigenvalues not converged
     c_bands:  1 eigenvalues not converged
     c_bands:  2 eigenvalues not converged
     c_bands:  1 eigenvalues not converged
     c_bands:  1 eigenvalues not converged
     c_bands:  2 eigenvalues not converged
     c_bands:  1 eigenvalues not converged
     c_bands:  1 eigenvalues not converged
     c_bands:  3 eigenvalues not converged
     c_bands:  3 eigenvalues not converged
     c_bands:  2 eigenvalues not converged
     c_bands:  1 eigenvalues not converged
     c_bands:  1 eigenvalues not converged
     c_bands:  1 eigenvalues not converged
     c_bands:  1 eigenvalues not converged
     c_bands:  1 eigenvalues not converged
     c_bands:  1 eigenvalues not converged
     ethr =  1.00E-06,  avg # of iterations = 18.1

     negative rho (up, down):  5.224E-07 0.000E+00

     total cpu time spent up to now is        2.0 secs

     total energy              =     -22.76629382 Ry
     estimated scf accuracy    <       0.01062029 Ry

     iteration #  2     ecut=    50.00 Ry     beta= 0.70
     Davidson diagonalization with overlap
     ethr =  1.33E-04,  avg # of iterations = 10.1

     negative rho (up, down):  1.110E-07 0.000E+00

     total cpu time spent up to now is        2.3 secs

     total energy              =     -22.78670336 Ry
     estimated scf accuracy    <       0.00956356 Ry

     iteration #  3     ecut=    50.00 Ry     beta= 0.70
     Davidson diagonalization with overlap
     ethr =  1.20E-04,  avg # of iterations =  1.0

     total cpu time spent up to now is        2.4 secs

     total energy              =     -22.78591327 Ry
     estimated scf accuracy    <       0.00209159 Ry

     iteration #  4     ecut=    50.00 Ry     beta= 0.70
     Davidson diagonalization with overlap
     ethr =  2.61E-05,  avg # of iterations =  3.3

     total cpu time spent up to now is        2.6 secs

     total energy              =     -22.78620192 Ry
     estimated scf accuracy    <       0.00003049 Ry

     iteration #  5     ecut=    50.00 Ry     beta= 0.70
     Davidson diagonalization with overlap
     c_bands:  1 eigenvalues not converged
     c_bands:  1 eigenvalues not converged
     ethr =  3.81E-07,  avg # of iterations =  6.3

     total cpu time spent up to now is        2.8 secs

     total energy              =     -22.78621133 Ry
     estimated scf accuracy    <       0.00001669 Ry

     iteration #  6     ecut=    50.00 Ry     beta= 0.70
     Davidson diagonalization with overlap
     ethr =  2.09E-07,  avg # of iterations =  1.6

     total cpu time spent up to now is        2.9 secs

     total energy              =     -22.78620249 Ry
     estimated scf accuracy    <       0.00002106 Ry

     iteration #  7     ecut=    50.00 Ry     beta= 0.70
     Davidson diagonalization with overlap
     ethr =  2.09E-07,  avg # of iterations =  2.7

     total cpu time spent up to now is        3.0 secs

     total energy              =     -22.78620287 Ry
     estimated scf accuracy    <       0.00001003 Ry

     iteration #  8     ecut=    50.00 Ry     beta= 0.70
     Davidson diagonalization with overlap
     ethr =  1.25E-07,  avg # of iterations =  1.0

     total cpu time spent up to now is        3.1 secs

     total energy              =     -22.78620248 Ry
     estimated scf accuracy    <       0.00000389 Ry

     iteration #  9     ecut=    50.00 Ry     beta= 0.70
     Davidson diagonalization with overlap
     ethr =  4.87E-08,  avg # of iterations =  1.0

     total cpu time spent up to now is        3.2 secs

     total energy              =     -22.78620265 Ry
     estimated scf accuracy    <       0.00000022 Ry

     iteration # 10     ecut=    50.00 Ry     beta= 0.70
     Davidson diagonalization with overlap
     ethr =  2.72E-09,  avg # of iterations =  2.3

     total cpu time spent up to now is        3.3 secs

     total energy              =     -22.78620270 Ry
     estimated scf accuracy    <       0.00000004 Ry

     iteration # 11     ecut=    50.00 Ry     beta= 0.70
     Davidson diagonalization with overlap
     ethr =  5.11E-10,  avg # of iterations =  2.1

     total cpu time spent up to now is        3.5 secs

     End of self-consistent calculation

          k = 0.0000 0.0000 0.0000 (  5035 PWs)   bands (ev):

   -23.3766 -11.5684  -7.5698  -7.5698  -0.9630  -0.1995   0.5961   0.9494

          k = 0.0000 0.0780 0.0000 (  5011 PWs)   bands (ev):

   -23.2766 -11.4501  -7.9826  -7.7731  -0.8277  -0.0626   0.7341   1.0866

          k = 0.0000 0.1560 0.0000 (  4981 PWs)   bands (ev):

   -22.9776 -11.0986  -9.0735  -8.2921  -0.4219   0.3474   1.1480   1.4978

          k = 0.0000 0.2340 0.0000 (  4953 PWs)   bands (ev):

   -22.4816 -10.5614 -10.5222  -8.9434   0.2537   1.0277   1.8374   2.1799

          k = 0.0000 0.3121 0.0000 (  4947 PWs)   bands (ev):

   -21.7933 -12.2189  -9.7350  -9.5811   1.1965   1.7610   2.0704   2.7496

          k = 0.0000 0.3901 0.0000 (  4934 PWs)   bands (ev):

   -20.9211 -13.9015 -10.1117  -8.7678   0.1388   2.3539   2.5481   3.2194

          k = 0.0000 0.4681 0.0000 (  4882 PWs)   bands (ev):

   -19.8852 -15.5102 -10.4847  -7.7059  -1.4659   2.2630   3.8881   4.6994

          k = 0.0000 0.5461 0.0000 (  4864 PWs)   bands (ev):

   -18.7876 -16.9031 -10.6783  -6.8262  -2.6343   2.1475   5.6010   6.4196

          k = 0.0676 0.1170 0.0000 (  5003 PWs)   bands (ev):

   -23.0771 -11.2157  -8.6881  -8.1826  -0.5571   0.2108   1.0101   1.3609

          k = 0.0676 0.1950 0.0000 (  4968 PWs)   bands (ev):

   -22.6796 -10.7518  -9.8948  -8.8527  -0.0162   0.7565   1.5620   1.9083

          k = 0.0676 0.2730 0.0000 (  4948 PWs)   bands (ev):

   -22.0874 -11.4101 -10.0680  -9.5561   0.7937   1.5665   2.3888   2.5311

          k = 0.0676 0.3511 0.0000 (  4923 PWs)   bands (ev):

   -21.3067 -13.0485 -10.1727  -9.1868   0.9040   1.8685   2.6731   3.0817

          k = 0.0676 0.4291 0.0000 (  4911 PWs)   bands (ev):

   -20.3504 -14.6811 -10.6423  -8.1564  -0.7374   2.8002   3.2333   4.0187

          k = 0.0676 0.5071 0.0000 (  4880 PWs)   bands (ev):

   -19.2573 -16.2008 -10.9339  -7.1238  -2.1722   2.6425   4.8126   5.6125

          k = 0.0676 0.5851 0.0000 (  4878 PWs)   bands (ev):

   -18.4265 -17.1770 -11.0327  -6.5855  -2.8520   2.5835   6.5510   6.7154

          k = 0.1351 0.2340 0.0000 (  4957 PWs)   bands (ev):

   -22.1858 -10.9674 -10.1803  -9.7400   0.6594   1.4365   2.2520   2.5913

          k = 0.1351 0.3121 0.0000 (  4931 PWs)   bands (ev):

   -21.5009 -12.3046 -10.5869  -9.3988   1.3887   1.6027   2.3868   3.2169

          k = 0.1351 0.3901 0.0000 (  4918 PWs)   bands (ev):

   -20.6346 -13.8128 -11.2269  -8.4390  -0.1437   2.8082   3.5946   4.1453

          k = 0.1351 0.4681 0.0000 (  4904 PWs)   bands (ev):

   -19.6075 -15.3331 -11.6510  -7.3770  -1.6395   3.9113   4.2952   5.0400

          k = 0.1351 0.5461 0.0000 (  4891 PWs)   bands (ev):

   -18.5217 -16.6822 -11.8625  -6.4752  -2.7737   3.8070   5.9750   6.6076

          k = 0.2027 0.3511 0.0000 (  4943 PWs)   bands (ev):

   -20.7300 -13.3031 -11.6688  -8.5350   0.0930   2.6763   3.4478   4.3194

          k = 0.2027 0.4291 0.0000 (  4919 PWs)   bands (ev):

   -19.7888 -14.5215 -12.4455  -7.5182  -1.2694   4.0054   4.7341   5.6544

          k = 0.2027 0.5071 0.0000 (  4914 PWs)   bands (ev):

   -18.7184 -15.8478 -12.8642  -6.4662  -2.5493   5.4531   5.6404   6.0650

          k = 0.2027 0.5851 0.0000 (  4912 PWs)   bands (ev):

   -17.9015 -16.7648 -12.9956  -5.8704  -3.2250   5.4452   6.6611   7.1786

          k = 0.2702 0.4681 0.0000 (  4921 PWs)   bands (ev):

   -18.7950 -15.3087 -13.4649  -6.4750  -2.4311   5.4362   5.8517   7.1429

          k = 0.2702 0.5461 0.0000 (  4911 PWs)   bands (ev):

   -17.7457 -16.2792 -13.9746  -5.4751  -3.4840   6.2057   6.9477   7.2233

          k = 0.3378 0.5851 0.0000 (  4884 PWs)   bands (ev):

   -16.8564 -16.8564 -14.4854  -4.4643  -4.4643   6.0425   7.8136   7.8136

     the Fermi energy is    -4.4643 ev

!    total energy              =     -22.78620270 Ry
     estimated scf accuracy    <          8.5E-09 Ry
     smearing contrib. (-TS)   =      -0.00005015 Ry
     internal energy E=F+TS    =     -22.78615255 Ry

     The total energy is F=E-TS. E is the sum of the following terms:
     one-electron contribution =    -366.48239290 Ry
     hartree contribution      =     183.80961952 Ry
     xc contribution           =      -6.89783927 Ry
     ewald contribution        =     166.78446010 Ry

     convergence has been achieved in  11 iterations

     Forces acting on atoms (cartesian axes, Ry/au):

     atom    1 type  1   force =     0.00000000    0.00000000    0.00000000
     atom    2 type  1   force =    -0.00000000   -0.00000000    0.00000000

     Total force =     0.000000     Total SCF correction =     0.000000


     Computing stress (Cartesian axis) and pressure

          total   stress  (Ry/bohr**3)                   (kbar)     P=      -43.50
  -0.00039620  -0.00000000  -0.00000000          -58.28       -0.00       -0.00
   0.00000000  -0.00039620  -0.00000000            0.00      -58.28       -0.00
   0.00000000   0.00000000  -0.00009468            0.00        0.00      -13.93

     Energy error            =      1.0E-02
     Gradient error          =      1.7E-26
     Cell gradient error     =      4.0E-04


     number of scf cycles    =   2
     number of bfgs steps    =   1

     enthalpy old            =     -22.7761108455 Ry
     enthalpy new            =     -22.7862026974 Ry

     CASE: enthalpy_new < enthalpy_old

     new trust radius        =       0.0837164621 bohr
     new conv_thr            =            1.0E-10 Ry

     new unit-cell volume =    779.76115 a.u.^3 (   115.54868 Ang^3 )
     density =      0.34521 g/cm^3

CELL_PARAMETERS (alat=  4.85000000)
   0.972178988   0.000000000   0.000000000
  -0.486089494   0.841931701   0.000000000
   0.000000000   0.000000000   8.350515464

ATOMIC_POSITIONS (crystal)
C             0.3333333333        0.6666666667        0.5000000000
C             0.6666666667        0.3333333333        0.5000000000



     Writing output data file ./work/LiC485.save/
     NEW-OLD atomic charge density approx. for the potential

     negative rho (up, down):  4.556E-06 0.000E+00
     extrapolated charge    7.75878, renormalised to    8.00000

     total cpu time spent up to now is        3.6 secs

     Self-consistent Calculation

     iteration #  1     ecut=    50.00 Ry     beta= 0.70
     Davidson diagonalization with overlap
     c_bands:  2 eigenvalues not converged
     c_bands:  1 eigenvalues not converged
     c_bands:  3 eigenvalues not converged
     c_bands:  1 eigenvalues not converged
     c_bands:  2 eigenvalues not converged
     c_bands:  3 eigenvalues not converged
     c_bands:  3 eigenvalues not converged
     c_bands:  1 eigenvalues not converged
     c_bands:  1 eigenvalues not converged
     c_bands:  1 eigenvalues not converged
     c_bands:  3 eigenvalues not converged
     c_bands:  2 eigenvalues not converged
     c_bands:  1 eigenvalues not converged
     c_bands:  1 eigenvalues not converged
     c_bands:  2 eigenvalues not converged
     c_bands:  1 eigenvalues not converged
     c_bands:  2 eigenvalues not converged
     c_bands:  1 eigenvalues not converged
     ethr =  1.00E-06,  avg # of iterations = 18.5

     negative rho (up, down):  3.018E-07 0.000E+00

     total cpu time spent up to now is        4.1 secs

     total energy              =     -22.76879004 Ry
     estimated scf accuracy    <       0.01313848 Ry

     iteration #  2     ecut=    50.00 Ry     beta= 0.70
     Davidson diagonalization with overlap
     ethr =  1.64E-04,  avg # of iterations = 10.2

     negative rho (up, down):  5.180E-08 0.000E+00

     total cpu time spent up to now is        4.4 secs

     total energy              =     -22.79421100 Ry
     estimated scf accuracy    <       0.01199318 Ry

     iteration #  3     ecut=    50.00 Ry     beta= 0.70
     Davidson diagonalization with overlap
     ethr =  1.50E-04,  avg # of iterations =  1.0

     total cpu time spent up to now is        4.5 secs

     total energy              =     -22.79324054 Ry
     estimated scf accuracy    <       0.00261714 Ry

     iteration #  4     ecut=    50.00 Ry     beta= 0.70
     Davidson diagonalization with overlap
     ethr =  3.27E-05,  avg # of iterations =  2.8

     total cpu time spent up to now is        4.6 secs

     total energy              =     -22.79358695 Ry
     estimated scf accuracy    <       0.00004576 Ry

     iteration #  5     ecut=    50.00 Ry     beta= 0.70
     Davidson diagonalization with overlap
     c_bands:  1 eigenvalues not converged
     ethr =  5.72E-07,  avg # of iterations =  5.5

     total cpu time spent up to now is        4.8 secs

     total energy              =     -22.79360349 Ry
     estimated scf accuracy    <       0.00001611 Ry

     iteration #  6     ecut=    50.00 Ry     beta= 0.70
     Davidson diagonalization with overlap
     ethr =  2.01E-07,  avg # of iterations =  1.1

     total cpu time spent up to now is        4.9 secs

     total energy              =     -22.79358831 Ry
     estimated scf accuracy    <       0.00002818 Ry

     iteration #  7     ecut=    50.00 Ry     beta= 0.70
     Davidson diagonalization with overlap
     ethr =  2.01E-07,  avg # of iterations =  2.0

     total cpu time spent up to now is        5.0 secs

     total energy              =     -22.79359178 Ry
     estimated scf accuracy    <       0.00000262 Ry

     iteration #  8     ecut=    50.00 Ry     beta= 0.70
     Davidson diagonalization with overlap
     ethr =  3.28E-08,  avg # of iterations =  1.0

     total cpu time spent up to now is        5.1 secs

     total energy              =     -22.79359166 Ry
     estimated scf accuracy    <       0.00000161 Ry

     iteration #  9     ecut=    50.00 Ry     beta= 0.70
     Davidson diagonalization with overlap
     ethr =  2.01E-08,  avg # of iterations =  2.0

     total cpu time spent up to now is        5.3 secs

     total energy              =     -22.79359178 Ry
     estimated scf accuracy    <       0.00000006 Ry

     iteration # 10     ecut=    50.00 Ry     beta= 0.70
     Davidson diagonalization with overlap
     ethr =  7.13E-10,  avg # of iterations =  2.6

     total cpu time spent up to now is        5.4 secs

     total energy              =     -22.79359180 Ry
     estimated scf accuracy    <       0.00000001 Ry

     iteration # 11     ecut=    50.00 Ry     beta= 0.70
     Davidson diagonalization with overlap
     ethr =  1.59E-10,  avg # of iterations =  1.3

     total cpu time spent up to now is        5.5 secs

     total energy              =     -22.79359181 Ry
     estimated scf accuracy    <          6.8E-09 Ry

     iteration # 12     ecut=    50.00 Ry     beta= 0.70
     Davidson diagonalization with overlap
     ethr =  8.47E-11,  avg # of iterations =  2.0

     total cpu time spent up to now is        5.6 secs

     total energy              =     -22.79359181 Ry
     estimated scf accuracy    <          8.4E-10 Ry

     iteration # 13     ecut=    50.00 Ry     beta= 0.70
     Davidson diagonalization with overlap
     ethr =  1.06E-11,  avg # of iterations =  1.2

     total cpu time spent up to now is        5.8 secs

     total energy              =     -22.79359181 Ry
     estimated scf accuracy    <          2.6E-10 Ry

     iteration # 14     ecut=    50.00 Ry     beta= 0.70
     Davidson diagonalization with overlap
     ethr =  3.26E-12,  avg # of iterations =  2.0

     total cpu time spent up to now is        5.9 secs

     End of self-consistent calculation

          k = 0.0000 0.0000 0.0000 (  5035 PWs)   bands (ev):

   -23.6019 -11.7349  -7.4441  -7.4441  -0.9714  -0.1991   0.5954   0.9489

          k =-0.0000 0.0792 0.0000 (  5011 PWs)   bands (ev):

   -23.4992 -11.6122  -7.8622  -7.6572  -0.8321  -0.0580   0.7375   1.0904

          k =-0.0000 0.1584 0.0000 (  4981 PWs)   bands (ev):

   -23.1920 -11.2476  -8.9709  -8.2003  -0.4143   0.3648   1.1640   1.5144

          k =-0.0000 0.2375 0.0000 (  4953 PWs)   bands (ev):

   -22.6825 -10.6493 -10.4886  -8.8800   0.2813   1.0666   1.8743   2.2181

          k =-0.0000 0.3167 0.0000 (  4947 PWs)   bands (ev):

   -21.9750 -12.1843  -9.8316  -9.5442   1.2526   1.9704   2.3108   2.8637

          k =-0.0000 0.3959 0.0000 (  4934 PWs)   bands (ev):

   -21.0775 -13.9096 -10.0962  -8.8258   0.4333   2.4842   3.0431   3.3293

          k =-0.0000 0.4751 0.0000 (  4882 PWs)   bands (ev):

   -20.0078 -15.5653 -10.4843  -7.7186  -1.2504   2.8026   4.0305   4.8565

          k =-0.0000 0.5543 0.0000 (  4864 PWs)   bands (ev):

   -18.8548 -17.0207 -10.6854  -6.7970  -2.4787   2.6949   5.7939   6.6358

          k = 0.0686 0.1188 0.0000 (  5003 PWs)   bands (ev):

   -23.2943 -11.3691  -8.5769  -8.0860  -0.5535   0.2239   1.0218   1.3731

          k = 0.0686 0.1980 0.0000 (  4968 PWs)   bands (ev):

   -22.8860 -10.8876  -9.8039  -8.7855   0.0035   0.7866   1.5904   1.9377

          k = 0.0686 0.2771 0.0000 (  4948 PWs)   bands (ev):

   -22.2774 -11.3524 -10.1777  -9.5167   0.8376   1.6238   2.4427   2.7602

          k = 0.0686 0.3563 0.0000 (  4923 PWs)   bands (ev):

   -21.4747 -13.0315 -10.1563  -9.2618   1.2394   1.9453   2.7671   3.5453

          k = 0.0686 0.4355 0.0000 (  4911 PWs)   bands (ev):

   -20.4893 -14.7087 -10.6431  -8.1891  -0.4821   3.2455   3.4531   4.1538

          k = 0.0686 0.5147 0.0000 (  4880 PWs)   bands (ev):

   -19.3554 -16.2797 -10.9453  -7.1104  -1.9886   3.1958   4.9817   5.8011

          k = 0.0686 0.5939 0.0000 (  4878 PWs)   bands (ev):

   -18.4586 -17.3256 -11.0476  -6.5448  -2.7043   3.1404   6.7793   6.9400

          k = 0.1371 0.2375 0.0000 (  4957 PWs)   bands (ev):

   -22.3786 -10.8896 -10.2943  -9.7117   0.6994   1.4880   2.3014   2.6420

          k = 0.1371 0.3167 0.0000 (  4931 PWs)   bands (ev):

   -21.6746 -12.2552 -10.5892  -9.4824   1.6711   1.7578   2.4702   3.2958

          k = 0.1371 0.3959 0.0000 (  4918 PWs)   bands (ev):

   -20.7829 -13.8056 -11.2469  -8.4840   0.1504   2.9137   3.7159   4.5604

          k = 0.1371 0.4751 0.0000 (  4904 PWs)   bands (ev):

   -19.7224 -15.3736 -11.6818  -7.3770  -1.4186   4.3656   4.5683   5.2102

          k = 0.1371 0.5543 0.0000 (  4891 PWs)   bands (ev):

   -18.5831 -16.7837 -11.8988  -6.4329  -2.6103   4.3879   6.1816   6.8413

          k = 0.2057 0.3563 0.0000 (  4943 PWs)   bands (ev):

   -20.8814 -13.2611 -11.7184  -8.5842   0.4052   2.7775   3.5639   4.4319

          k = 0.2057 0.4355 0.0000 (  4919 PWs)   bands (ev):

   -19.9114 -14.5123 -12.5178  -7.5255  -1.0195   4.1479   4.8942   5.8454

          k = 0.2057 0.5147 0.0000 (  4914 PWs)   bands (ev):

   -18.8017 -15.8905 -12.9410  -6.4275  -2.3594   5.7460   6.1559   6.2775

          k = 0.2057 0.5939 0.0000 (  4912 PWs)   bands (ev):

   -17.9263 -16.8709 -13.0733  -5.8028  -3.0690   6.0617   6.8988   7.4471

          k = 0.2743 0.4751 0.0000 (  4921 PWs)   bands (ev):

   -18.8844 -15.2967 -13.5917  -6.4384  -2.2278   5.6261   6.0539   7.3476

          k = 0.2743 0.5543 0.0000 (  4911 PWs)   bands (ev):

   -17.7889 -16.3056 -14.1190  -5.3945  -3.3259   6.4092   7.2494   7.8127

          k = 0.3429 0.5939 0.0000 (  4884 PWs)   bands (ev):

   -16.8667 -16.8667 -14.6830  -4.3427  -4.3427   6.2298   8.2798   8.2798

     the Fermi energy is    -4.3427 ev

!    total energy              =     -22.79359181 Ry
     estimated scf accuracy    <          2.8E-12 Ry
     smearing contrib. (-TS)   =      -0.00005015 Ry
     internal energy E=F+TS    =     -22.79354166 Ry

     The total energy is F=E-TS. E is the sum of the following terms:
     one-electron contribution =    -377.67409448 Ry
     hartree contribution      =     189.43290336 Ry
     xc contribution           =      -6.96000617 Ry
     ewald contribution        =     172.40765563 Ry

     convergence has been achieved in  14 iterations

     Forces acting on atoms (cartesian axes, Ry/au):

     atom    1 type  1   force =     0.00000000    0.00000000    0.00000000
     atom    2 type  1   force =    -0.00000000   -0.00000000    0.00000000

     Total force =     0.000000     Total SCF correction =     0.000000


     Computing stress (Cartesian axis) and pressure

          total   stress  (Ry/bohr**3)                   (kbar)     P=      -26.84
  -0.00022673   0.00000000  -0.00000000          -33.35        0.00       -0.00
   0.00000000  -0.00022673   0.00000000            0.00      -33.35        0.00
   0.00000000   0.00000000  -0.00009384            0.00        0.00      -13.80

     Energy error            =      7.4E-03
     Gradient error          =      1.8E-26
     Cell gradient error     =      2.3E-04


     number of scf cycles    =   3
     number of bfgs steps    =   2

     enthalpy old            =     -22.7862026974 Ry
     enthalpy new            =     -22.7935918061 Ry

     CASE: enthalpy_new < enthalpy_old

     new trust radius        =       0.1082105493 bohr
     new conv_thr            =            1.0E-10 Ry

     new unit-cell volume =    749.83695 a.u.^3 (   111.11437 Ang^3 )
     density =      0.35899 g/cm^3

CELL_PARAMETERS (alat=  4.85000000)
   0.953342279   0.000000000   0.000000000
  -0.476671139   0.825618632   0.000000000
   0.000000000   0.000000000   8.350515464

ATOMIC_POSITIONS (crystal)
C             0.3333333333        0.6666666667        0.5000000000
C             0.6666666667        0.3333333333        0.5000000000



     Writing output data file ./work/LiC485.save/
     NEW-OLD atomic charge density approx. for the potential

     negative rho (up, down):  6.562E-06 0.000E+00
     extrapolated charge    7.68130, renormalised to    8.00000

     total cpu time spent up to now is        6.0 secs

     Self-consistent Calculation

     iteration #  1     ecut=    50.00 Ry     beta= 0.70
     Davidson diagonalization with overlap
     c_bands:  2 eigenvalues not converged
     c_bands:  2 eigenvalues not converged
     c_bands:  3 eigenvalues not converged
     c_bands:  2 eigenvalues not converged
     c_bands:  1 eigenvalues not converged
     c_bands:  2 eigenvalues not converged
     c_bands:  3 eigenvalues not converged
     c_bands:  3 eigenvalues not converged
     c_bands:  1 eigenvalues not converged
     c_bands:  1 eigenvalues not converged
     c_bands:  3 eigenvalues not converged
     c_bands:  2 eigenvalues not converged
     c_bands:  1 eigenvalues not converged
     c_bands:  1 eigenvalues not converged
     c_bands:  1 eigenvalues not converged
     c_bands:  2 eigenvalues not converged
     c_bands:  1 eigenvalues not converged
     c_bands:  2 eigenvalues not converged
     c_bands:  1 eigenvalues not converged
     ethr =  1.00E-06,  avg # of iterations = 19.0

     negative rho (up, down):  6.778E-07 0.000E+00

     total cpu time spent up to now is        6.5 secs

     total energy              =     -22.75523841 Ry
     estimated scf accuracy    <       0.02178948 Ry

     iteration #  2     ecut=    50.00 Ry     beta= 0.70
     Davidson diagonalization with overlap
     ethr =  2.72E-04,  avg # of iterations = 10.7

     negative rho (up, down):  1.605E-07 0.000E+00

     total cpu time spent up to now is        6.8 secs

     total energy              =     -22.79764666 Ry
     estimated scf accuracy    <       0.02012332 Ry

     iteration #  3     ecut=    50.00 Ry     beta= 0.70
     Davidson diagonalization with overlap
     ethr =  2.52E-04,  avg # of iterations =  1.0

     total cpu time spent up to now is        6.9 secs

     total energy              =     -22.79615715 Ry
     estimated scf accuracy    <       0.00436582 Ry

     iteration #  4     ecut=    50.00 Ry     beta= 0.70
     Davidson diagonalization with overlap
     ethr =  5.46E-05,  avg # of iterations =  3.6

     total cpu time spent up to now is        7.0 secs

     total energy              =     -22.79660770 Ry
     estimated scf accuracy    <       0.00015284 Ry

     iteration #  5     ecut=    50.00 Ry     beta= 0.70
     Davidson diagonalization with overlap
     ethr =  1.91E-06,  avg # of iterations =  6.7

     total cpu time spent up to now is        7.2 secs

     total energy              =     -22.79665365 Ry
     estimated scf accuracy    <       0.00000826 Ry

     iteration #  6     ecut=    50.00 Ry     beta= 0.70
     Davidson diagonalization with overlap
     ethr =  1.03E-07,  avg # of iterations =  2.0

     total cpu time spent up to now is        7.4 secs

     total energy              =     -22.79663521 Ry
     estimated scf accuracy    <       0.00003351 Ry

     iteration #  7     ecut=    50.00 Ry     beta= 0.70
     Davidson diagonalization with overlap
     ethr =  1.03E-07,  avg # of iterations =  2.0

     total cpu time spent up to now is        7.5 secs

     total energy              =     -22.79664129 Ry
     estimated scf accuracy    <       0.00000093 Ry

     iteration #  8     ecut=    50.00 Ry     beta= 0.70
     Davidson diagonalization with overlap
     ethr =  1.16E-08,  avg # of iterations =  1.1

     total cpu time spent up to now is        7.6 secs

     total energy              =     -22.79664130 Ry
     estimated scf accuracy    <       0.00000046 Ry

     iteration #  9     ecut=    50.00 Ry     beta= 0.70
     Davidson diagonalization with overlap
     ethr =  5.76E-09,  avg # of iterations =  1.1

     total cpu time spent up to now is        7.7 secs

     total energy              =     -22.79664131 Ry
     estimated scf accuracy    <       0.00000003 Ry

     iteration # 10     ecut=    50.00 Ry     beta= 0.70
     Davidson diagonalization with overlap
     ethr =  3.82E-10,  avg # of iterations =  2.4

     total cpu time spent up to now is        7.9 secs

     total energy              =     -22.79664132 Ry
     estimated scf accuracy    <          2.3E-09 Ry

     iteration # 11     ecut=    50.00 Ry     beta= 0.70
     Davidson diagonalization with overlap
     ethr =  2.82E-11,  avg # of iterations =  1.7

     total cpu time spent up to now is        8.0 secs

     total energy              =     -22.79664132 Ry
     estimated scf accuracy    <          1.1E-09 Ry

     iteration # 12     ecut=    50.00 Ry     beta= 0.70
     Davidson diagonalization with overlap
     ethr =  1.40E-11,  avg # of iterations =  2.0

     total cpu time spent up to now is        8.1 secs

     total energy              =     -22.79664132 Ry
     estimated scf accuracy    <          2.9E-10 Ry

     iteration # 13     ecut=    50.00 Ry     beta= 0.70
     Davidson diagonalization with overlap
     ethr =  3.60E-12,  avg # of iterations =  1.0

     total cpu time spent up to now is        8.2 secs

     End of self-consistent calculation

          k = 0.0000 0.0000 0.0000 (  5035 PWs)   bands (ev):

   -23.8997 -11.9603  -7.2631  -7.2631  -0.9821  -0.1986   0.5947   0.9480

          k =-0.0000 0.0807 0.0000 (  5011 PWs)   bands (ev):

   -23.7935 -11.8317  -7.6896  -7.4899  -0.8374  -0.0517   0.7424   1.0953

          k =-0.0000 0.1615 0.0000 (  4981 PWs)   bands (ev):

   -23.4756 -11.4493  -8.8241  -8.0660  -0.4033   0.3884   1.1858   1.5366

          k =-0.0000 0.2422 0.0000 (  4953 PWs)   bands (ev):

   -22.9480 -10.8213 -10.3836  -8.7848   0.3198   1.1194   1.9246   2.2698

          k =-0.0000 0.3230 0.0000 (  4947 PWs)   bands (ev):

   -22.2151 -12.1313  -9.9621  -9.4853   1.3296   2.1085   2.7759   2.9570

          k =-0.0000 0.4037 0.0000 (  4934 PWs)   bands (ev):

   -21.2841 -13.9142 -10.0666  -8.9036   0.8325   2.6180   3.4793   3.7521

          k =-0.0000 0.4845 0.0000 (  4882 PWs)   bands (ev):

   -20.1700 -15.6324 -10.4753  -7.7347  -0.9588   3.5270   4.2339   5.0699

          k =-0.0000 0.5652 0.0000 (  4864 PWs)   bands (ev):

   -18.9428 -17.1715 -10.6866  -6.7554  -2.2694   3.4402   6.0575   6.9289

          k = 0.0699 0.1211 0.0000 (  5003 PWs)   bands (ev):

   -23.5814 -11.5767  -8.4179  -7.9453  -0.5480   0.2418   1.0381   1.3896

          k = 0.0699 0.2019 0.0000 (  4968 PWs)   bands (ev):

   -23.1587 -11.0714  -9.6742  -8.6850   0.0310   0.8277   1.6294   1.9773

          k = 0.0699 0.2826 0.0000 (  4948 PWs)   bands (ev):

   -22.5285 -11.2686 -10.3259  -9.4540   0.8982   1.7008   2.5159   2.8498

          k = 0.0699 0.3634 0.0000 (  4923 PWs)   bands (ev):

   -21.6964 -13.0029 -10.1250  -9.3629   1.6929   2.0503   2.8975   3.6934

          k = 0.0699 0.4441 0.0000 (  4911 PWs)   bands (ev):

   -20.6728 -14.7397 -10.6351  -8.2326  -0.1357   3.4701   4.1297   4.3376

          k = 0.0699 0.5249 0.0000 (  4880 PWs)   bands (ev):

   -19.4852 -16.3784 -10.9517  -7.0907  -1.7403   3.9457   5.2149   6.0571

          k = 0.0699 0.6056 0.0000 (  4878 PWs)   bands (ev):

   -18.4912 -17.5264 -11.0589  -6.4875  -2.5056   3.8981   7.0905   7.2462

          k = 0.1399 0.2422 0.0000 (  4957 PWs)   bands (ev):

   -22.6333 -10.7781 -10.4483  -9.6644   0.7546   1.5581   2.3688   2.7106

          k = 0.1399 0.3230 0.0000 (  4931 PWs)   bands (ev):

   -21.9039 -12.1830 -10.5826  -9.5951   1.7651   2.2561   2.5891   3.4032

          k = 0.1399 0.4037 0.0000 (  4918 PWs)   bands (ev):

   -20.9787 -13.7911 -11.2633  -8.5442   0.5511   3.0578   3.8810   4.7293

          k = 0.1399 0.4845 0.0000 (  4904 PWs)   bands (ev):

   -19.8741 -15.4227 -11.7126  -7.3757  -1.1183   4.6156   5.3028   5.4418

          k = 0.1399 0.5652 0.0000 (  4891 PWs)   bands (ev):

   -18.6631 -16.9150 -11.9370  -6.3736  -2.3893   5.1746   6.4643   7.1591

          k = 0.2098 0.3634 0.0000 (  4943 PWs)   bands (ev):

   -21.0813 -13.1978 -11.7765  -8.6501   0.8317   2.9160   3.7218   4.5851

          k = 0.2098 0.4441 0.0000 (  4919 PWs)   bands (ev):

   -20.0731 -14.4953 -12.6039  -7.5343  -0.6781   4.3426   5.1120   6.2999

          k = 0.2098 0.5249 0.0000 (  4914 PWs)   bands (ev):

   -18.9111 -15.9446 -13.0312  -6.3734  -2.1004   6.0210   6.5677   6.9692

          k = 0.2098 0.6056 0.0000 (  4912 PWs)   bands (ev):

   -17.9498 -17.0180 -13.1642  -5.7090  -2.8569   6.8908   7.2252   7.8068

          k = 0.2797 0.4845 0.0000 (  4921 PWs)   bands (ev):

   -19.0019 -15.2729 -13.7538  -6.3873  -1.9497   5.8843   6.3302   7.6268

          k = 0.2797 0.5652 0.0000 (  4911 PWs)   bands (ev):

   -17.8429 -16.3389 -14.3006  -5.2831  -3.1094   6.6881   7.6072   9.0812

          k = 0.3496 0.6056 0.0000 (  4884 PWs)   bands (ev):

   -16.8717 -16.8717 -14.9474  -4.1754  -4.1754   6.4861   8.8557   8.8557

     the Fermi energy is    -4.1754 ev

!    total energy              =     -22.79664132 Ry
     estimated scf accuracy    <          7.4E-11 Ry
     smearing contrib. (-TS)   =      -0.00005015 Ry
     internal energy E=F+TS    =     -22.79659117 Ry

     The total energy is F=E-TS. E is the sum of the following terms:
     one-electron contribution =    -392.92526129 Ry
     hartree contribution      =     197.09738007 Ry
     xc contribution           =      -7.04380484 Ry
     ewald contribution        =     180.07509490 Ry

     convergence has been achieved in  13 iterations

     Forces acting on atoms (cartesian axes, Ry/au):

     atom    1 type  1   force =     0.00000000    0.00000000    0.00000000
     atom    2 type  1   force =    -0.00000000   -0.00000000    0.00000000

     Total force =     0.000000     Total SCF correction =     0.000000


     Computing stress (Cartesian axis) and pressure

          total   stress  (Ry/bohr**3)                   (kbar)     P=       -1.43
   0.00003162  -0.00000000   0.00000000            4.65       -0.00        0.00
   0.00000000   0.00003162   0.00000000            0.00        4.65        0.00
   0.00000000   0.00000000  -0.00009241            0.00        0.00      -13.59

     Energy error            =      3.0E-03
     Gradient error          =      1.8E-26
     Cell gradient error     =      3.2E-05


     number of scf cycles    =   4
     number of bfgs steps    =   3

     enthalpy old            =     -22.7935918061 Ry
     enthalpy new            =     -22.7966413159 Ry

     CASE: enthalpy_new < enthalpy_old

     new trust radius        =       0.0130185528 bohr
     new conv_thr            =            1.0E-10 Ry

     new unit-cell volume =    753.40608 a.u.^3 (   111.64326 Ang^3 )
     density =      0.35729 g/cm^3

CELL_PARAMETERS (alat=  4.85000000)
   0.955608478   0.000000000   0.000000000
  -0.477804239   0.827581218   0.000000000
   0.000000000   0.000000000   8.350515464

ATOMIC_POSITIONS (crystal)
C             0.3333333333        0.6666666667        0.5000000000
C             0.6666666667        0.3333333333        0.5000000000



     Writing output data file ./work/LiC485.save/
     NEW-OLD atomic charge density approx. for the potential

     negative rho (up, down):  3.256E-07 0.000E+00
     extrapolated charge    8.03783, renormalised to    8.00000

     total cpu time spent up to now is        9.0 secs

     Self-consistent Calculation

     iteration #  1     ecut=    50.00 Ry     beta= 0.70
     Davidson diagonalization with overlap
     c_bands:  1 eigenvalues not converged
     c_bands:  1 eigenvalues not converged
     c_bands:  1 eigenvalues not converged
     c_bands:  1 eigenvalues not converged
     c_bands:  2 eigenvalues not converged
     ethr =  1.00E-06,  avg # of iterations = 13.9

     total cpu time spent up to now is        9.4 secs

     total energy              =     -22.79577412 Ry
     estimated scf accuracy    <       0.00047090 Ry

     iteration #  2     ecut=    50.00 Ry     beta= 0.70
     Davidson diagonalization with overlap
     c_bands:  1 eigenvalues not converged
     c_bands:  1 eigenvalues not converged
     c_bands:  1 eigenvalues not converged
     c_bands:  1 eigenvalues not converged
     c_bands:  2 eigenvalues not converged
     ethr =  5.89E-06,  avg # of iterations = 12.6

     total cpu time spent up to now is        9.7 secs

     total energy              =     -22.79672156 Ry
     estimated scf accuracy    <       0.00044740 Ry

     iteration #  3     ecut=    50.00 Ry     beta= 0.70
     Davidson diagonalization with overlap
     ethr =  5.59E-06,  avg # of iterations =  1.6

     total cpu time spent up to now is        9.9 secs

     total energy              =     -22.79670148 Ry
     estimated scf accuracy    <       0.00010229 Ry

     iteration #  4     ecut=    50.00 Ry     beta= 0.70
     Davidson diagonalization with overlap
     ethr =  1.28E-06,  avg # of iterations =  2.4

     total cpu time spent up to now is       10.0 secs

     total energy              =     -22.79670511 Ry
     estimated scf accuracy    <       0.00002645 Ry

     iteration #  5     ecut=    50.00 Ry     beta= 0.70
     Davidson diagonalization with overlap
     ethr =  3.31E-07,  avg # of iterations =  1.0

     total cpu time spent up to now is       10.1 secs

     total energy              =     -22.79669046 Ry
     estimated scf accuracy    <       0.00002442 Ry

     iteration #  6     ecut=    50.00 Ry     beta= 0.70
     Davidson diagonalization with overlap
     ethr =  3.05E-07,  avg # of iterations =  2.1

     total cpu time spent up to now is       10.2 secs

     total energy              =     -22.79669379 Ry
     estimated scf accuracy    <       0.00000022 Ry

     iteration #  7     ecut=    50.00 Ry     beta= 0.70
     Davidson diagonalization with overlap
     ethr =  2.72E-09,  avg # of iterations =  2.7

     total cpu time spent up to now is       10.3 secs

     total energy              =     -22.79669392 Ry
     estimated scf accuracy    <       0.00000004 Ry

     iteration #  8     ecut=    50.00 Ry     beta= 0.70
     Davidson diagonalization with overlap
     ethr =  4.86E-10,  avg # of iterations =  2.0

     total cpu time spent up to now is       10.5 secs

     total energy              =     -22.79669392 Ry
     estimated scf accuracy    <       0.00000001 Ry

     iteration #  9     ecut=    50.00 Ry     beta= 0.70
     Davidson diagonalization with overlap
     ethr =  1.31E-10,  avg # of iterations =  2.0

     total cpu time spent up to now is       10.6 secs

     total energy              =     -22.79669393 Ry
     estimated scf accuracy    <          1.2E-10 Ry

     iteration # 10     ecut=    50.00 Ry     beta= 0.70
     Davidson diagonalization with overlap
     ethr =  1.48E-12,  avg # of iterations =  3.4

     total cpu time spent up to now is       10.7 secs

     total energy              =     -22.79669393 Ry
     estimated scf accuracy    <          1.3E-10 Ry

     iteration # 11     ecut=    50.00 Ry     beta= 0.70
     Davidson diagonalization with overlap
     ethr =  1.48E-12,  avg # of iterations =  2.0

     total cpu time spent up to now is       10.9 secs

     End of self-consistent calculation

          k = 0.0000 0.0000 0.0000 (  5035 PWs)   bands (ev):

   -23.8635 -11.9325  -7.2860  -7.2860  -0.9808  -0.1987   0.5947   0.9481

          k =-0.0000 0.0806 0.0000 (  5011 PWs)   bands (ev):

   -23.7577 -11.8047  -7.7114  -7.5111  -0.8368  -0.0525   0.7418   1.0947

          k =-0.0000 0.1611 0.0000 (  4981 PWs)   bands (ev):

   -23.4411 -11.4245  -8.8427  -8.0831  -0.4047   0.3855   1.1831   1.5339

          k =-0.0000 0.2417 0.0000 (  4953 PWs)   bands (ev):

   -22.9157 -10.8001 -10.3969  -8.7971   0.3150   1.1129   1.9184   2.2635

          k =-0.0000 0.3222 0.0000 (  4947 PWs)   bands (ev):

   -22.1859 -12.1382  -9.9460  -9.4931   1.3200   2.0943   2.7169   2.9459

          k =-0.0000 0.4028 0.0000 (  4934 PWs)   bands (ev):

   -21.2590 -13.9141 -10.0708  -8.8941   0.7834   2.6018   3.4608   3.6651

          k =-0.0000 0.4833 0.0000 (  4882 PWs)   bands (ev):

   -20.1503 -15.6246 -10.4769  -7.7328  -0.9947   3.4388   4.2076   5.0435

          k =-0.0000 0.5639 0.0000 (  4864 PWs)   bands (ev):

   -18.9321 -17.1535 -10.6869  -6.7606  -2.2950   3.3482   6.0249   6.8928

          k = 0.0698 0.1208 0.0000 (  5003 PWs)   bands (ev):

   -23.5465 -11.5511  -8.4379  -7.9632  -0.5487   0.2396   1.0361   1.3876

          k = 0.0698 0.2014 0.0000 (  4968 PWs)   bands (ev):

   -23.1255 -11.0488  -9.6906  -8.6979   0.0275   0.8226   1.6246   1.9725

          k = 0.0698 0.2819 0.0000 (  4948 PWs)   bands (ev):

   -22.4980 -11.2792 -10.3076  -9.4623   0.8906   1.6913   2.5069   2.8411

          k = 0.0698 0.3625 0.0000 (  4923 PWs)   bands (ev):

   -21.6695 -13.0068 -10.1294  -9.3505   1.6372   2.0373   2.8812   3.6781

          k = 0.0698 0.4431 0.0000 (  4911 PWs)   bands (ev):

   -20.6505 -14.7363 -10.6367  -8.2273  -0.1784   3.4483   4.0406   4.3149

          k = 0.0698 0.5236 0.0000 (  4880 PWs)   bands (ev):

   -19.4694 -16.3668 -10.9514  -7.0932  -1.7708   3.8535   5.1858   6.0255

          k = 0.0698 0.6042 0.0000 (  4878 PWs)   bands (ev):

   -18.4878 -17.5017 -11.0580  -6.4947  -2.5300   3.8046   7.0520   7.2084

          k = 0.1395 0.2417 0.0000 (  4957 PWs)   bands (ev):

   -22.6023 -10.7922 -10.4294  -9.6707   0.7477   1.5494   2.3604   2.7021

          k = 0.1395 0.3222 0.0000 (  4931 PWs)   bands (ev):

   -21.8760 -12.1922 -10.5840  -9.5813   1.7534   2.1954   2.5736   3.3900

          k = 0.1395 0.4028 0.0000 (  4918 PWs)   bands (ev):

   -20.9549 -13.7932 -11.2619  -8.5369   0.5016   3.0399   3.8606   4.7092

          k = 0.1395 0.4833 0.0000 (  4904 PWs)   bands (ev):

   -19.8557 -15.4170 -11.7095  -7.3760  -1.1553   4.5887   5.2084   5.4132

          k = 0.1395 0.5639 0.0000 (  4891 PWs)   bands (ev):

   -18.6534 -16.8993 -11.9329  -6.3810  -2.4165   5.0778   6.4292   7.1198

          k = 0.2093 0.3625 0.0000 (  4943 PWs)   bands (ev):

   -21.0570 -13.2060 -11.7699  -8.6420   0.7790   2.8988   3.7023   4.5662

          k = 0.2093 0.4431 0.0000 (  4919 PWs)   bands (ev):

   -20.0534 -14.4977 -12.5940  -7.5333  -0.7203   4.3185   5.0851   6.0322

          k = 0.2093 0.5236 0.0000 (  4914 PWs)   bands (ev):

   -18.8978 -15.9381 -13.0209  -6.3801  -2.1324   5.9879   6.5319   6.8688

          k = 0.2093 0.6042 0.0000 (  4912 PWs)   bands (ev):

   -17.9475 -16.9997 -13.1539  -5.7207  -2.8831   6.7891   7.1848   7.7627

          k = 0.2791 0.4833 0.0000 (  4921 PWs)   bands (ev):

   -18.9876 -15.2763 -13.7344  -6.3937  -1.9841   5.8524   6.2960   7.6380

          k = 0.2791 0.5639 0.0000 (  4911 PWs)   bands (ev):

   -17.8365 -16.3349 -14.2791  -5.2970  -3.1362   6.6535   7.5640   8.5299

          k = 0.3488 0.6042 0.0000 (  4884 PWs)   bands (ev):

   -16.8716 -16.8716 -14.9150  -4.1962  -4.1962   6.4544   8.7877   8.7877

     the Fermi energy is    -4.1962 ev

!    total energy              =     -22.79669393 Ry
     estimated scf accuracy    <          5.9E-12 Ry
     smearing contrib. (-TS)   =      -0.00005015 Ry
     internal energy E=F+TS    =     -22.79664377 Ry

     The total energy is F=E-TS. E is the sum of the following terms:
     one-electron contribution =    -391.04151842 Ry
     hartree contribution      =     196.15060491 Ry
     xc contribution           =      -7.03351043 Ry
     ewald contribution        =     179.12778016 Ry

     convergence has been achieved in  11 iterations

     Forces acting on atoms (cartesian axes, Ry/au):

     atom    1 type  1   force =     0.00000000    0.00000000    0.00000000
     atom    2 type  1   force =    -0.00000000   -0.00000000    0.00000000

     Total force =     0.000000     Total SCF correction =     0.000000


     Computing stress (Cartesian axis) and pressure

          total   stress  (Ry/bohr**3)                   (kbar)     P=       -4.74
  -0.00000201   0.00000000   0.00000000           -0.30        0.00        0.00
   0.00000000  -0.00000201   0.00000000            0.00       -0.30        0.00
  -0.00000000   0.00000000  -0.00009263           -0.00        0.00      -13.63

     Energy error            =      5.3E-05
     Gradient error          =      1.8E-26
     Cell gradient error     =      2.0E-06


     number of scf cycles    =   5
     number of bfgs steps    =   4

     enthalpy old            =     -22.7966413159 Ry
     enthalpy new            =     -22.7966939252 Ry

     CASE: enthalpy_new < enthalpy_old

     new trust radius        =       0.0007789970 bohr
     new conv_thr            =            1.0E-10 Ry

     new unit-cell volume =    753.19227 a.u.^3 (   111.61158 Ang^3 )
     density =      0.35739 g/cm^3

CELL_PARAMETERS (alat=  4.85000000)
   0.955472875   0.000000000   0.000000000
  -0.477736437   0.827463782   0.000000000
   0.000000000   0.000000000   8.350515464

ATOMIC_POSITIONS (crystal)
C             0.3333333333        0.6666666667        0.5000000000
C             0.6666666667        0.3333333333        0.5000000000



     Writing output data file ./work/LiC485.save/
     NEW-OLD atomic charge density approx. for the potential
     extrapolated charge    7.99773, renormalised to    8.00000

     total cpu time spent up to now is       10.9 secs

     Self-consistent Calculation

     iteration #  1     ecut=    50.00 Ry     beta= 0.70
     Davidson diagonalization with overlap
     ethr =  1.00E-06,  avg # of iterations =  4.0

     Threshold (ethr) on eigenvalues was too large:
     Diagonalizing with lowered threshold

     Davidson diagonalization with overlap
     ethr =  1.79E-08,  avg # of iterations =  1.0

     total cpu time spent up to now is       11.2 secs

     total energy              =     -22.79669113 Ry
     estimated scf accuracy    <       0.00000155 Ry

     iteration #  2     ecut=    50.00 Ry     beta= 0.70
     Davidson diagonalization with overlap
     ethr =  1.93E-08,  avg # of iterations =  3.6

     total cpu time spent up to now is       11.4 secs

     total energy              =     -22.79669423 Ry
     estimated scf accuracy    <       0.00000144 Ry

     iteration #  3     ecut=    50.00 Ry     beta= 0.70
     Davidson diagonalization with overlap
     ethr =  1.80E-08,  avg # of iterations =  1.0

     total cpu time spent up to now is       11.5 secs

     total energy              =     -22.79669414 Ry
     estimated scf accuracy    <       0.00000033 Ry

     iteration #  4     ecut=    50.00 Ry     beta= 0.70
     Davidson diagonalization with overlap
     ethr =  4.16E-09,  avg # of iterations =  2.0

     total cpu time spent up to now is       11.6 secs

     total energy              =     -22.79669416 Ry
     estimated scf accuracy    <       0.00000005 Ry

     iteration #  5     ecut=    50.00 Ry     beta= 0.70
     Davidson diagonalization with overlap
     ethr =  5.73E-10,  avg # of iterations =  1.0

     total cpu time spent up to now is       11.7 secs

     total energy              =     -22.79669416 Ry
     estimated scf accuracy    <       0.00000005 Ry

     iteration #  6     ecut=    50.00 Ry     beta= 0.70
     Davidson diagonalization with overlap
     ethr =  5.73E-10,  avg # of iterations =  1.0

     total cpu time spent up to now is       11.8 secs

     total energy              =     -22.79669414 Ry
     estimated scf accuracy    <       0.00000003 Ry

     iteration #  7     ecut=    50.00 Ry     beta= 0.70
     Davidson diagonalization with overlap
     ethr =  3.99E-10,  avg # of iterations =  2.0

     total cpu time spent up to now is       11.9 secs

     total energy              =     -22.79669414 Ry
     estimated scf accuracy    <          2.6E-10 Ry

     iteration #  8     ecut=    50.00 Ry     beta= 0.70
     Davidson diagonalization with overlap
     ethr =  3.20E-12,  avg # of iterations =  2.4

     total cpu time spent up to now is       12.1 secs

     End of self-consistent calculation

          k = 0.0000 0.0000 0.0000 (  5035 PWs)   bands (ev):

   -23.8656 -11.9341  -7.2845  -7.2845  -0.9809  -0.1986   0.5947   0.9481

          k =-0.0000 0.0806 0.0000 (  5011 PWs)   bands (ev):

   -23.7597 -11.8062  -7.7100  -7.5098  -0.8368  -0.0524   0.7419   1.0947

          k =-0.0000 0.1611 0.0000 (  4981 PWs)   bands (ev):

   -23.4430 -11.4259  -8.8415  -8.0820  -0.4046   0.3857   1.1833   1.5341

          k =-0.0000 0.2417 0.0000 (  4953 PWs)   bands (ev):

   -22.9175 -10.8013 -10.3960  -8.7963   0.3153   1.1133   1.9188   2.2638

          k =-0.0000 0.3223 0.0000 (  4947 PWs)   bands (ev):

   -22.1876 -12.1377  -9.9469  -9.4925   1.3206   2.0952   2.7203   2.9464

          k =-0.0000 0.4028 0.0000 (  4934 PWs)   bands (ev):

   -21.2604 -13.9140 -10.0704  -8.8946   0.7864   2.6028   3.4619   3.6704

          k =-0.0000 0.4834 0.0000 (  4882 PWs)   bands (ev):

   -20.1514 -15.6250 -10.4767  -7.7328  -0.9925   3.4442   4.2091   5.0451

          k =-0.0000 0.5640 0.0000 (  4864 PWs)   bands (ev):

   -18.9327 -17.1545 -10.6868  -6.7602  -2.2934   3.3538   6.0269   6.8949

          k = 0.0698 0.1209 0.0000 (  5003 PWs)   bands (ev):

   -23.5485 -11.5526  -8.4366  -7.9620  -0.5486   0.2397   1.0362   1.3877

          k = 0.0698 0.2014 0.0000 (  4968 PWs)   bands (ev):

   -23.1274 -11.0501  -9.6895  -8.6970   0.0278   0.8229   1.6249   1.9727

          k = 0.0698 0.2820 0.0000 (  4948 PWs)   bands (ev):

   -22.4997 -11.2785 -10.3086  -9.4617   0.8911   1.6919   2.5074   2.8406

          k = 0.0698 0.3626 0.0000 (  4923 PWs)   bands (ev):

   -21.6710 -13.0064 -10.1290  -9.3511   1.6406   2.0381   2.8821   3.6791

          k = 0.0698 0.4431 0.0000 (  4911 PWs)   bands (ev):

   -20.6517 -14.7364 -10.6365  -8.2275  -0.1758   3.4496   4.0460   4.3163

          k = 0.0698 0.5237 0.0000 (  4880 PWs)   bands (ev):

   -19.4702 -16.3674 -10.9513  -7.0930  -1.7689   3.8591   5.1876   6.0274

          k = 0.0698 0.6043 0.0000 (  4878 PWs)   bands (ev):

   -18.4879 -17.5031 -11.0580  -6.4942  -2.5285   3.8103   7.0544   7.2107

          k = 0.1395 0.2417 0.0000 (  4957 PWs)   bands (ev):

   -22.6041 -10.7912 -10.4304  -9.6703   0.7481   1.5500   2.3609   2.7027

          k = 0.1395 0.3223 0.0000 (  4931 PWs)   bands (ev):

   -21.8776 -12.1915 -10.5838  -9.5820   1.7541   2.1991   2.5745   3.3907

          k = 0.1395 0.4028 0.0000 (  4918 PWs)   bands (ev):

   -20.9562 -13.7929 -11.2619  -8.5372   0.5047   3.0410   3.8619   4.7105

          k = 0.1395 0.4834 0.0000 (  4904 PWs)   bands (ev):

   -19.8567 -15.4173 -11.7095  -7.3759  -1.1530   4.5904   5.2141   5.4149

          k = 0.1395 0.5640 0.0000 (  4891 PWs)   bands (ev):

   -18.6538 -16.9001 -11.9331  -6.3805  -2.4148   5.0836   6.4314   7.1222

          k = 0.2093 0.3626 0.0000 (  4943 PWs)   bands (ev):

   -21.0583 -13.2054 -11.7702  -8.6424   0.7823   2.8998   3.7034   4.5673

          k = 0.2093 0.4431 0.0000 (  4919 PWs)   bands (ev):

   -20.0545 -14.4974 -12.5945  -7.5333  -0.7177   4.3199   5.0867   6.0338

          k = 0.2093 0.5237 0.0000 (  4914 PWs)   bands (ev):

   -18.8985 -15.9384 -13.0215  -6.3796  -2.1304   5.9899   6.5340   6.8749

          k = 0.2093 0.6043 0.0000 (  4912 PWs)   bands (ev):

   -17.9476 -17.0007 -13.1544  -5.7199  -2.8815   6.7953   7.1872   7.7653

          k = 0.2791 0.4834 0.0000 (  4921 PWs)   bands (ev):

   -18.9884 -15.2760 -13.7355  -6.3932  -1.9820   5.8543   6.2981   7.6392

          k = 0.2791 0.5640 0.0000 (  4911 PWs)   bands (ev):

   -17.8368 -16.3350 -14.2803  -5.2961  -3.1345   6.6556   7.5666   8.5358

          k = 0.3489 0.6043 0.0000 (  4884 PWs)   bands (ev):

   -16.8715 -16.8715 -14.9169  -4.1948  -4.1948   6.4563   8.7918   8.7918

     the Fermi energy is    -4.1948 ev

!    total energy              =     -22.79669414 Ry
     estimated scf accuracy    <          6.9E-11 Ry
     smearing contrib. (-TS)   =      -0.00005015 Ry
     internal energy E=F+TS    =     -22.79664399 Ry

     The total energy is F=E-TS. E is the sum of the following terms:
     one-electron contribution =    -391.15382648 Ry
     hartree contribution      =     196.20703515 Ry
     xc contribution           =      -7.03412188 Ry
     ewald contribution        =     179.18426922 Ry

     convergence has been achieved in   8 iterations

     Forces acting on atoms (cartesian axes, Ry/au):

     atom    1 type  1   force =     0.00000000    0.00000000    0.00000000
     atom    2 type  1   force =    -0.00000000   -0.00000000    0.00000000

     Total force =     0.000000     Total SCF correction =     0.000000


     Computing stress (Cartesian axis) and pressure

          total   stress  (Ry/bohr**3)                   (kbar)     P=       -4.54
  -0.00000001  -0.00000000   0.00000000           -0.00       -0.00        0.00
  -0.00000000  -0.00000001  -0.00000000           -0.00       -0.00       -0.00
  -0.00000000   0.00000000  -0.00009264           -0.00        0.00      -13.63

     Energy error            =      2.2E-07
     Gradient error          =      1.8E-26
     Cell gradient error     =      1.3E-08


     number of scf cycles    =   6
     number of bfgs steps    =   5

     enthalpy old            =     -22.7966939252 Ry
     enthalpy new            =     -22.7966941415 Ry

     CASE: enthalpy_new < enthalpy_old

     small trust_radius: resetting bfgs history

     new trust radius        =       0.0000018187 bohr
     new conv_thr            =            1.0E-10 Ry

     new unit-cell volume =    753.19177 a.u.^3 (   111.61151 Ang^3 )
     density =      0.35739 g/cm^3

CELL_PARAMETERS (alat=  4.85000000)
   0.955472558   0.000000000   0.000000000
  -0.477736279   0.827463508   0.000000000
   0.000000000   0.000000000   8.350515464

ATOMIC_POSITIONS (crystal)
C             0.3333333333        0.6666666667        0.5000000000
C             0.6666666667        0.3333333333        0.5000000000



     Writing output data file ./work/LiC485.save/
     NEW-OLD atomic charge density approx. for the potential
     extrapolated charge    7.99999, renormalised to    8.00000

     total cpu time spent up to now is       12.1 secs

     Self-consistent Calculation

     iteration #  1     ecut=    50.00 Ry     beta= 0.70
     Davidson diagonalization with overlap
     ethr =  1.00E-06,  avg # of iterations =  1.0

     Threshold (ethr) on eigenvalues was too large:
     Diagonalizing with lowered threshold

     Davidson diagonalization with overlap
     ethr =  6.44E-13,  avg # of iterations =  2.0

     total cpu time spent up to now is       12.4 secs

     End of self-consistent calculation

          k = 0.0000 0.0000 0.0000 (  5035 PWs)   bands (ev):

   -23.8662 -11.9346  -7.2852  -7.2852  -0.9812  -0.1988   0.5948   0.9482

          k =-0.0000 0.0806 0.0000 (  5011 PWs)   bands (ev):

   -23.7603 -11.8068  -7.7106  -7.5104  -0.8371  -0.0526   0.7419   1.0948

          k =-0.0000 0.1611 0.0000 (  4981 PWs)   bands (ev):

   -23.4436 -11.4264  -8.8421  -8.0826  -0.4049   0.3855   1.1834   1.5341

          k =-0.0000 0.2417 0.0000 (  4953 PWs)   bands (ev):

   -22.9181 -10.8019 -10.3966  -8.7969   0.3150   1.1131   1.9189   2.2639

          k =-0.0000 0.3223 0.0000 (  4947 PWs)   bands (ev):

   -22.1882 -12.1383  -9.9474  -9.4932   1.3203   2.0950   2.7198   2.9464

          k =-0.0000 0.4028 0.0000 (  4934 PWs)   bands (ev):

   -21.2610 -13.9146 -10.0711  -8.8951   0.7858   2.6025   3.4617   3.6698

          k =-0.0000 0.4834 0.0000 (  4882 PWs)   bands (ev):

   -20.1520 -15.6256 -10.4773  -7.7334  -0.9931   3.4436   4.2088   5.0449

          k =-0.0000 0.5640 0.0000 (  4864 PWs)   bands (ev):

   -18.9333 -17.1551 -10.6874  -6.7608  -2.2940   3.3532   6.0265   6.8947

          k = 0.0698 0.1209 0.0000 (  5003 PWs)   bands (ev):

   -23.5491 -11.5531  -8.4373  -7.9626  -0.5489   0.2396   1.0363   1.3877

          k = 0.0698 0.2014 0.0000 (  4968 PWs)   bands (ev):

   -23.1280 -11.0506  -9.6901  -8.6977   0.0275   0.8228   1.6249   1.9728

          k = 0.0698 0.2820 0.0000 (  4948 PWs)   bands (ev):

   -22.5003 -11.2791 -10.3092  -9.4623   0.8908   1.6917   2.5075   2.8406

          k = 0.0698 0.3626 0.0000 (  4923 PWs)   bands (ev):

   -21.6716 -13.0070 -10.1296  -9.3517   1.6401   2.0378   2.8820   3.6791

          k = 0.0698 0.4431 0.0000 (  4911 PWs)   bands (ev):

   -20.6523 -14.7370 -10.6371  -8.2280  -0.1763   3.4493   4.0454   4.3161

          k = 0.0698 0.5237 0.0000 (  4880 PWs)   bands (ev):

   -19.4708 -16.3680 -10.9519  -7.0935  -1.7695   3.8585   5.1872   6.0272

          k = 0.0698 0.6043 0.0000 (  4878 PWs)   bands (ev):

   -18.4885 -17.5037 -11.0586  -6.4948  -2.5290   3.8097   7.0540   7.2104

          k = 0.1395 0.2417 0.0000 (  4957 PWs)   bands (ev):

   -22.6047 -10.7919 -10.4310  -9.6709   0.7478   1.5498   2.3610   2.7027

          k = 0.1395 0.3223 0.0000 (  4931 PWs)   bands (ev):

   -21.8782 -12.1922 -10.5844  -9.5826   1.7538   2.1986   2.5743   3.3908

          k = 0.1395 0.4028 0.0000 (  4918 PWs)   bands (ev):

   -20.9569 -13.7935 -11.2625  -8.5378   0.5041   3.0407   3.8617   4.7106

          k = 0.1395 0.4834 0.0000 (  4904 PWs)   bands (ev):

   -19.8573 -15.4179 -11.7102  -7.3764  -1.1536   4.5901   5.2136   5.4147

          k = 0.1395 0.5640 0.0000 (  4891 PWs)   bands (ev):

   -18.6544 -16.9007 -11.9337  -6.3810  -2.4153   5.0831   6.4310   7.1220

          k = 0.2093 0.3626 0.0000 (  4943 PWs)   bands (ev):

   -21.0589 -13.2061 -11.7708  -8.6430   0.7817   2.8995   3.7032   4.5674

          k = 0.2093 0.4431 0.0000 (  4919 PWs)   bands (ev):

   -20.0551 -14.4980 -12.5951  -7.5338  -0.7183   4.3196   5.0865   6.0338

          k = 0.2093 0.5237 0.0000 (  4914 PWs)   bands (ev):

   -18.8991 -15.9390 -13.0221  -6.3802  -2.1310   5.9895   6.5336   6.8743

          k = 0.2093 0.6043 0.0000 (  4912 PWs)   bands (ev):

   -17.9482 -17.0013 -13.1550  -5.7205  -2.8820   6.7947   7.1868   7.7650

          k = 0.2791 0.4834 0.0000 (  4921 PWs)   bands (ev):

   -18.9890 -15.2766 -13.7361  -6.3938  -1.9826   5.8540   6.2977   7.6393

          k = 0.2791 0.5640 0.0000 (  4911 PWs)   bands (ev):

   -17.8374 -16.3357 -14.2809  -5.2966  -3.1351   6.6552   7.5662   8.5352

          k = 0.3489 0.6043 0.0000 (  4884 PWs)   bands (ev):

   -16.8721 -16.8721 -14.9175  -4.1954  -4.1954   6.4558   8.7914   8.7914

     the Fermi energy is    -4.1954 ev

!    total energy              =     -22.79669414 Ry
     estimated scf accuracy    <          5.5E-11 Ry
     smearing contrib. (-TS)   =      -0.00005015 Ry
     internal energy E=F+TS    =     -22.79664399 Ry

     The total energy is F=E-TS. E is the sum of the following terms:
     one-electron contribution =    -391.15416597 Ry
     hartree contribution      =     196.20725263 Ry
     xc contribution           =      -7.03413179 Ry
     ewald contribution        =     179.18440113 Ry

     convergence has been achieved in   1 iterations

     Forces acting on atoms (cartesian axes, Ry/au):

     atom    1 type  1   force =     0.00000000    0.00000000    0.00000000
     atom    2 type  1   force =     0.00000000    0.00000000    0.00000000

     Total force =     0.000000     Total SCF correction =     0.000000


     Computing stress (Cartesian axis) and pressure

          total   stress  (Ry/bohr**3)                   (kbar)     P=       -4.54
  -0.00000002   0.00000000   0.00000000           -0.00        0.00        0.00
   0.00000000  -0.00000002   0.00000000            0.00       -0.00        0.00
   0.00000000   0.00000000  -0.00009256            0.00        0.00      -13.62

     Energy error            =      2.9E-11
     Gradient error          =      0.0E+00
     Cell gradient error     =      1.7E-08


     number of scf cycles    =   7
     number of bfgs steps    =   6

     enthalpy old            =     -22.7966941415 Ry
     enthalpy new            =     -22.7966941414 Ry

     CASE: enthalpy_new > enthalpy_old

     new trust radius        =       0.0000001707 bohr

     trust_radius < trust_radius_min

     resetting bfgs history

     Message from routine bfgs:
     history already reset at previous step: stopping
     new conv_thr            =            1.0E-10 Ry

     new unit-cell volume =    753.19177 a.u.^3 (   111.61151 Ang^3 )
     density =      0.35739 g/cm^3

CELL_PARAMETERS (alat=  4.85000000)
   0.955472558   0.000000000   0.000000000
  -0.477736279   0.827463508   0.000000000
   0.000000000   0.000000000   8.350515464

ATOMIC_POSITIONS (crystal)
C             0.3333333333        0.6666666667        0.5000000000
C             0.6666666667        0.3333333333        0.5000000000



     Writing output data file ./work/LiC485.save/
     NEW-OLD atomic charge density approx. for the potential

     total cpu time spent up to now is       12.4 secs

     Self-consistent Calculation

     iteration #  1     ecut=    50.00 Ry     beta= 0.70
     Davidson diagonalization with overlap
     ethr =  1.00E-06,  avg # of iterations =  1.0

     Threshold (ethr) on eigenvalues was too large:
     Diagonalizing with lowered threshold

     Davidson diagonalization with overlap
     ethr =  4.64E-13,  avg # of iterations =  1.8

     total cpu time spent up to now is       12.7 secs

     End of self-consistent calculation

          k = 0.0000 0.0000 0.0000 (  5035 PWs)   bands (ev):

   -23.8656 -11.9341  -7.2846  -7.2846  -0.9809  -0.1986   0.5947   0.9481

          k =-0.0000 0.0806 0.0000 (  5011 PWs)   bands (ev):

   -23.7598 -11.8062  -7.7100  -7.5098  -0.8369  -0.0524   0.7419   1.0947

          k =-0.0000 0.1611 0.0000 (  4981 PWs)   bands (ev):

   -23.4431 -11.4259  -8.8415  -8.0820  -0.4046   0.3857   1.1833   1.5341

          k =-0.0000 0.2417 0.0000 (  4953 PWs)   bands (ev):

   -22.9176 -10.8013 -10.3960  -8.7963   0.3153   1.1133   1.9188   2.2638

          k =-0.0000 0.3223 0.0000 (  4947 PWs)   bands (ev):

   -22.1876 -12.1377  -9.9469  -9.4926   1.3206   2.0952   2.7203   2.9464

          k =-0.0000 0.4028 0.0000 (  4934 PWs)   bands (ev):

   -21.2604 -13.9140 -10.0705  -8.8946   0.7864   2.6028   3.4619   3.6703

          k =-0.0000 0.4834 0.0000 (  4882 PWs)   bands (ev):

   -20.1514 -15.6250 -10.4767  -7.7329  -0.9925   3.4442   4.2091   5.0451

          k =-0.0000 0.5640 0.0000 (  4864 PWs)   bands (ev):

   -18.9327 -17.1545 -10.6868  -6.7603  -2.2934   3.3538   6.0269   6.8949

          k = 0.0698 0.1209 0.0000 (  5003 PWs)   bands (ev):

   -23.5485 -11.5526  -8.4367  -7.9620  -0.5486   0.2397   1.0362   1.3877

          k = 0.0698 0.2014 0.0000 (  4968 PWs)   bands (ev):

   -23.1274 -11.0501  -9.6895  -8.6971   0.0278   0.8229   1.6249   1.9727

          k = 0.0698 0.2820 0.0000 (  4948 PWs)   bands (ev):

   -22.4997 -11.2785 -10.3086  -9.4617   0.8911   1.6919   2.5074   2.8405

          k = 0.0698 0.3626 0.0000 (  4923 PWs)   bands (ev):

   -21.6710 -13.0064 -10.1290  -9.3511   1.6406   2.0381   2.8821   3.6790

          k = 0.0698 0.4431 0.0000 (  4911 PWs)   bands (ev):

   -20.6518 -14.7364 -10.6365  -8.2275  -0.1758   3.4496   4.0460   4.3163

          k = 0.0698 0.5237 0.0000 (  4880 PWs)   bands (ev):

   -19.4703 -16.3674 -10.9513  -7.0930  -1.7689   3.8591   5.1876   6.0274

          k = 0.0698 0.6043 0.0000 (  4878 PWs)   bands (ev):

   -18.4879 -17.5031 -11.0580  -6.4942  -2.5285   3.8103   7.0544   7.2107

          k = 0.1395 0.2417 0.0000 (  4957 PWs)   bands (ev):

   -22.6041 -10.7913 -10.4305  -9.6703   0.7481   1.5500   2.3609   2.7027

          k = 0.1395 0.3223 0.0000 (  4931 PWs)   bands (ev):

   -21.8776 -12.1916 -10.5838  -9.5820   1.7541   2.1991   2.5745   3.3907

          k = 0.1395 0.4028 0.0000 (  4918 PWs)   bands (ev):

   -20.9563 -13.7930 -11.2619  -8.5372   0.5047   3.0410   3.8618   4.7105

          k = 0.1395 0.4834 0.0000 (  4904 PWs)   bands (ev):

   -19.8567 -15.4173 -11.7096  -7.3759  -1.1531   4.5904   5.2141   5.4149

          k = 0.1395 0.5640 0.0000 (  4891 PWs)   bands (ev):

   -18.6539 -16.9002 -11.9331  -6.3805  -2.4148   5.0836   6.4313   7.1222

          k = 0.2093 0.3626 0.0000 (  4943 PWs)   bands (ev):

   -21.0583 -13.2055 -11.7702  -8.6424   0.7822   2.8998   3.7034   4.5673

          k = 0.2093 0.4431 0.0000 (  4919 PWs)   bands (ev):

   -20.0545 -14.4974 -12.5945  -7.5333  -0.7177   4.3199   5.0867   6.0337

          k = 0.2093 0.5237 0.0000 (  4914 PWs)   bands (ev):

   -18.8985 -15.9384 -13.0215  -6.3797  -2.1304   5.9899   6.5340   6.8749

          k = 0.2093 0.6043 0.0000 (  4912 PWs)   bands (ev):

   -17.9476 -17.0007 -13.1544  -5.7199  -2.8815   6.7953   7.1872   7.7653

          k = 0.2791 0.4834 0.0000 (  4921 PWs)   bands (ev):

   -18.9884 -15.2760 -13.7355  -6.3932  -1.9820   5.8543   6.2981   7.6392

          k = 0.2791 0.5640 0.0000 (  4911 PWs)   bands (ev):

   -17.8368 -16.3351 -14.2803  -5.2961  -3.1346   6.6556   7.5666   8.5358

          k = 0.3489 0.6043 0.0000 (  4884 PWs)   bands (ev):

   -16.8715 -16.8715 -14.9169  -4.1949  -4.1949   6.4563   8.7918   8.7918

     the Fermi energy is    -4.1949 ev

!    total energy              =     -22.79669414 Ry
     estimated scf accuracy    <          3.9E-11 Ry
     smearing contrib. (-TS)   =      -0.00005015 Ry
     internal energy E=F+TS    =     -22.79664399 Ry

     The total energy is F=E-TS. E is the sum of the following terms:
     one-electron contribution =    -391.15409686 Ry
     hartree contribution      =     196.20717618 Ry
     xc contribution           =      -7.03412444 Ry
     ewald contribution        =     179.18440113 Ry

     convergence has been achieved in   1 iterations

     Forces acting on atoms (cartesian axes, Ry/au):

     atom    1 type  1   force =     0.00000000    0.00000000    0.00000000
     atom    2 type  1   force =     0.00000000    0.00000000    0.00000000

     Total force =     0.000000     Total SCF correction =     0.000000


     Computing stress (Cartesian axis) and pressure

          total   stress  (Ry/bohr**3)                   (kbar)     P=       -4.54
  -0.00000001  -0.00000000   0.00000000           -0.00       -0.00        0.00
  -0.00000000  -0.00000001   0.00000000           -0.00       -0.00        0.00
  -0.00000000   0.00000000  -0.00009263           -0.00        0.00      -13.63

     Message from routine bfgs:
     history already reset at previous step: stopping
     Energy error            =      7.7E-12
     Gradient error          =      0.0E+00
     Cell gradient error     =      7.9E-09


     bfgs converged in   8 scf cycles and   6 bfgs steps
     (criteria: energy <  1.0E-04 Ry, force <  1.0E-08Ry/Bohr, cell <  1.0E-03kbar)

     End of BFGS Geometry Optimization

     Final enthalpy =     -22.7966941415 Ry

     File ./work/LiC485.bfgs deleted, as requested
Begin final coordinates
     new unit-cell volume =    753.19177 a.u.^3 (   111.61151 Ang^3 )
     density =      0.35739 g/cm^3

CELL_PARAMETERS (alat=  4.85000000)
   0.955472558   0.000000000   0.000000000
  -0.477736279   0.827463508   0.000000000
   0.000000000   0.000000000   8.350515464

ATOMIC_POSITIONS (crystal)
C             0.3333333333        0.6666666667        0.5000000000
C             0.6666666667        0.3333333333        0.5000000000
End final coordinates



     Writing output data file ./work/LiC485.save/

     Final scf calculation at the relaxed structure.
     The G-vectors are recalculated for the final unit cell
     Results may differ from those at the preceding step.
 
     Parallelization info
     --------------------
     sticks:   dense  smooth     PW     G-vecs:    dense   smooth      PW
     Min           9       9      2                 1115     1115     170
     Max          10      10      3                 1146     1146     215
     Sum         301     301     91                36039    36039    6397
 


     bravais-lattice index     =            4
     lattice parameter (alat)  =       4.8500  a.u.
     unit-cell volume          =     753.1918 (a.u.)^3
     number of atoms/cell      =            2
     number of atomic types    =            1
     number of electrons       =         8.00
     number of Kohn-Sham states=            8
     kinetic-energy cutoff     =      50.0000  Ry
     charge density cutoff     =     200.0000  Ry
     scf convergence threshold =      1.0E-10
     mixing beta               =       0.7000
     number of iterations used =            8  plain     mixing
     press convergence thresh. =      1.0E-03
     Exchange-correlation= PBE
                           (   1   4   3   4   0   0   0)

     celldm(1)=   4.850000  celldm(2)=   0.000000  celldm(3)=   8.350515
     celldm(4)=   0.000000  celldm(5)=   0.000000  celldm(6)=   0.000000

     crystal axes: (cart. coord. in units of alat)
               a(1) = (   0.955473   0.000000   0.000000 )  
               a(2) = (  -0.477736   0.827464   0.000000 )  
               a(3) = (   0.000000   0.000000   8.350515 )  

     reciprocal axes: (cart. coord. in units 2 pi/alat)
               b(1) = (  1.046603  0.604256  0.000000 )  
               b(2) = ( -0.000000  1.208513  0.000000 )  
               b(3) = (  0.000000  0.000000  0.119753 )  


     PseudoPot. # 1 for C  read from file:
     /home/yhkim/qe-6.7/pseudo/ONCV1/1.2/C_ONCV_PBE-1.2.upf
     MD5 check sum: 1a5f83a7b1f58d24996abe00ed223ac6
     Pseudo is Norm-conserving, Zval =  4.0
     Generated using ONCVPSP code by D. R. Hamann
     Using radial grid of  602 points,  4 beta functions with: 
                l(1) =   0
                l(2) =   0
                l(3) =   1
                l(4) =   1

     atomic species   valence    mass     pseudopotential
        C              4.00    12.01070     C ( 1.00)

     24 Sym. Ops., with inversion, found



   Cartesian axes

     site n.     atom                  positions (alat units)
         1           C   tau(   1) = (  -0.0000000   0.5516423   4.1752577  )
         2           C   tau(   2) = (   0.4777363   0.2758212   4.1752577  )

     number of k points=    27  Methfessel-Paxton smearing, width (Ry)=  0.0100
                       cart. coord. in units 2pi/alat
        k(    1) = (   0.0000000   0.0000000   0.0000000), wk =   0.0088889
        k(    2) = (  -0.0000000   0.0805675   0.0000000), wk =   0.0533333
        k(    3) = (  -0.0000000   0.1611350   0.0000000), wk =   0.0533333
        k(    4) = (  -0.0000000   0.2417025   0.0000000), wk =   0.0533333
        k(    5) = (  -0.0000000   0.3222700   0.0000000), wk =   0.0533333
        k(    6) = (  -0.0000000   0.4028375   0.0000000), wk =   0.0533333
        k(    7) = (  -0.0000000   0.4834050   0.0000000), wk =   0.0533333
        k(    8) = (  -0.0000000   0.5639725   0.0000000), wk =   0.0533333
        k(    9) = (   0.0697735   0.1208513   0.0000000), wk =   0.0533333
        k(   10) = (   0.0697735   0.2014188   0.0000000), wk =   0.1066667
        k(   11) = (   0.0697735   0.2819863   0.0000000), wk =   0.1066667
        k(   12) = (   0.0697735   0.3625538   0.0000000), wk =   0.1066667
        k(   13) = (   0.0697735   0.4431213   0.0000000), wk =   0.1066667
        k(   14) = (   0.0697735   0.5236888   0.0000000), wk =   0.1066667
        k(   15) = (   0.0697735   0.6042563   0.0000000), wk =   0.0533333
        k(   16) = (   0.1395470   0.2417025   0.0000000), wk =   0.0533333
        k(   17) = (   0.1395470   0.3222700   0.0000000), wk =   0.1066667
        k(   18) = (   0.1395470   0.4028375   0.0000000), wk =   0.1066667
        k(   19) = (   0.1395470   0.4834050   0.0000000), wk =   0.1066667
        k(   20) = (   0.1395470   0.5639725   0.0000000), wk =   0.1066667
        k(   21) = (   0.2093205   0.3625538   0.0000000), wk =   0.0533333
        k(   22) = (   0.2093205   0.4431213   0.0000000), wk =   0.1066667
        k(   23) = (   0.2093205   0.5236888   0.0000000), wk =   0.1066667
        k(   24) = (   0.2093205   0.6042563   0.0000000), wk =   0.0533333
        k(   25) = (   0.2790940   0.4834050   0.0000000), wk =   0.0533333
        k(   26) = (   0.2790940   0.5639725   0.0000000), wk =   0.1066667
        k(   27) = (   0.3488675   0.6042563   0.0000000), wk =   0.0177778

     Dense  grid:    36039 G-vectors     FFT dimensions: (  24,  24, 192)

     Estimated max dynamical RAM per process >       1.96 MB

     Estimated total dynamical RAM >      62.59 MB
 ----2D----2D----2D----2D----2D----2D----2D----2D----2D----2D----2D----2D
  The code is running with the 2D cutoff
  Please refer to:
  Sohier, T., Calandra, M., & Mauri, F. (2017), 
  Density functional perturbation theory for gated two-dimensional heterostructu
 res:
  Theoretical developments and application to flexural phonons in graphene.
  Physical Review B, 96(7), 75448. https://doi.org/10.1103/PhysRevB.96.075448
 ----2D----2D----2D----2D----2D----2D----2D----2D----2D----2D----2D----2D

     Initial potential from superposition of free atoms

     starting charge    7.98607, renormalised to    8.00000

     negative rho (up, down):  1.159E-04 0.000E+00
     Starting wfcs are random

     total cpu time spent up to now is       12.8 secs

     Self-consistent Calculation

     iteration #  1     ecut=    50.00 Ry     beta= 0.70
     Davidson diagonalization with overlap
     c_bands:  2 eigenvalues not converged
     c_bands:  3 eigenvalues not converged
     c_bands:  5 eigenvalues not converged
     c_bands:  5 eigenvalues not converged
     c_bands:  4 eigenvalues not converged
     c_bands:  4 eigenvalues not converged
     c_bands:  3 eigenvalues not converged
     c_bands:  2 eigenvalues not converged
     c_bands:  3 eigenvalues not converged
     c_bands:  3 eigenvalues not converged
     c_bands:  5 eigenvalues not converged
     c_bands:  4 eigenvalues not converged
     c_bands:  4 eigenvalues not converged
     c_bands:  3 eigenvalues not converged
     c_bands:  2 eigenvalues not converged
     c_bands:  4 eigenvalues not converged
     c_bands:  4 eigenvalues not converged
     c_bands:  4 eigenvalues not converged
     c_bands:  4 eigenvalues not converged
     c_bands:  3 eigenvalues not converged
     c_bands:  4 eigenvalues not converged
     c_bands:  3 eigenvalues not converged
     c_bands:  3 eigenvalues not converged
     c_bands:  3 eigenvalues not converged
     c_bands:  4 eigenvalues not converged
     c_bands:  3 eigenvalues not converged
     c_bands:  3 eigenvalues not converged
     ethr =  1.00E-06,  avg # of iterations = 23.0

     negative rho (up, down):  2.308E-05 0.000E+00

     total cpu time spent up to now is       13.5 secs

     total energy              =     -22.76011670 Ry
     estimated scf accuracy    <       0.19956845 Ry

     iteration #  2     ecut=    50.00 Ry     beta= 0.70
     Davidson diagonalization with overlap
     ethr =  2.49E-03,  avg # of iterations =  2.3

     negative rho (up, down):  3.007E-06 0.000E+00

     total cpu time spent up to now is       13.7 secs

     total energy              =     -22.79019001 Ry
     estimated scf accuracy    <       0.00234351 Ry

     iteration #  3     ecut=    50.00 Ry     beta= 0.70
     Davidson diagonalization with overlap
     ethr =  2.93E-05,  avg # of iterations =  9.3

     total cpu time spent up to now is       13.9 secs

     total energy              =     -22.79058807 Ry
     estimated scf accuracy    <       0.00017368 Ry

     iteration #  4     ecut=    50.00 Ry     beta= 0.70
     Davidson diagonalization with overlap
     ethr =  2.17E-06,  avg # of iterations =  5.6

     total cpu time spent up to now is       14.0 secs

     total energy              =     -22.79060135 Ry
     estimated scf accuracy    <       0.00000124 Ry

     iteration #  5     ecut=    50.00 Ry     beta= 0.70
     Davidson diagonalization with overlap
     ethr =  1.55E-08,  avg # of iterations =  3.8

     total cpu time spent up to now is       14.2 secs

     total energy              =     -22.79060279 Ry
     estimated scf accuracy    <       0.00000004 Ry

     iteration #  6     ecut=    50.00 Ry     beta= 0.70
     Davidson diagonalization with overlap
     ethr =  4.60E-10,  avg # of iterations =  2.4

     total cpu time spent up to now is       14.3 secs

     total energy              =     -22.79060280 Ry
     estimated scf accuracy    <          8.4E-10 Ry

     iteration #  7     ecut=    50.00 Ry     beta= 0.70
     Davidson diagonalization with overlap
     ethr =  1.05E-11,  avg # of iterations =  3.1

     total cpu time spent up to now is       14.4 secs

     End of self-consistent calculation

          k = 0.0000 0.0000 0.0000 (  4459 PWs)   bands (ev):

   -23.8751 -11.9371  -7.2721  -7.2721  -0.9832  -0.2036   0.5837   0.9389

          k =-0.0000 0.0806 0.0000 (  4465 PWs)   bands (ev):

   -23.7690 -11.8090  -7.6996  -7.4994  -0.8391  -0.0574   0.7308   1.0855

          k =-0.0000 0.1611 0.0000 (  4489 PWs)   bands (ev):

   -23.4522 -11.4292  -8.8313  -8.0706  -0.4068   0.3807   1.1723   1.5247

          k =-0.0000 0.2417 0.0000 (  4471 PWs)   bands (ev):

   -22.9265 -10.8043 -10.3855  -8.7839   0.3132   1.1085   1.9079   2.2545

          k =-0.0000 0.3223 0.0000 (  4509 PWs)   bands (ev):

   -22.1964 -12.1340  -9.9490  -9.4825   1.3187   2.0914   2.7228   2.9355

          k =-0.0000 0.4028 0.0000 (  4519 PWs)   bands (ev):

   -21.2690 -13.9151 -10.0607  -8.8961   0.7889   2.6012   3.4575   3.6664

          k =-0.0000 0.4834 0.0000 (  4521 PWs)   bands (ev):

   -20.1596 -15.6297 -10.4704  -7.7337  -0.9906   3.4381   4.2070   5.0412

          k =-0.0000 0.5640 0.0000 (  4521 PWs)   bands (ev):

   -18.9407 -17.1603 -10.6807  -6.7606  -2.2934   3.3466   6.0255   6.8916

          k = 0.0698 0.1209 0.0000 (  4495 PWs)   bands (ev):

   -23.5578 -11.5551  -8.4259  -7.9520  -0.5509   0.2348   1.0252   1.3784

          k = 0.0698 0.2014 0.0000 (  4483 PWs)   bands (ev):

   -23.1365 -11.0524  -9.6782  -8.6867   0.0256   0.8181   1.6139   1.9634

          k = 0.0698 0.2820 0.0000 (  4483 PWs)   bands (ev):

   -22.5086 -11.2716 -10.3108  -9.4516   0.8891   1.6873   2.4965   2.8319

          k = 0.0698 0.3626 0.0000 (  4498 PWs)   bands (ev):

   -21.6796 -13.0051 -10.1204  -9.3525   1.6446   2.0363   2.8778   3.6691

          k = 0.0698 0.4431 0.0000 (  4508 PWs)   bands (ev):

   -20.6601 -14.7391 -10.6288  -8.2292  -0.1733   3.4483   4.0421   4.3121

          k = 0.0698 0.5237 0.0000 (  4515 PWs)   bands (ev):

   -19.4783 -16.3724 -10.9452  -7.0947  -1.7682   3.8541   5.1859   6.0237

          k = 0.0698 0.6043 0.0000 (  4518 PWs)   bands (ev):

   -18.4963 -17.5086 -11.0524  -6.4950  -2.5273   3.8049   7.0538   7.2098

          k = 0.1395 0.2417 0.0000 (  4485 PWs)   bands (ev):

   -22.6130 -10.7845 -10.4322  -9.6618   0.7461   1.5453   2.3500   2.6937

          k = 0.1395 0.3223 0.0000 (  4483 PWs)   bands (ev):

   -21.8864 -12.1880 -10.5759  -9.5842   1.7522   2.2048   2.5702   3.3800

          k = 0.1395 0.4028 0.0000 (  4501 PWs)   bands (ev):

   -20.9647 -13.7933 -11.2560  -8.5393   0.5047   3.0393   3.8577   4.6998

          k = 0.1395 0.4834 0.0000 (  4507 PWs)   bands (ev):

   -19.8649 -15.4208 -11.7040  -7.3776  -1.1527   4.5894   5.2142   5.4114

          k = 0.1395 0.5640 0.0000 (  4505 PWs)   bands (ev):

   -18.6617 -16.9054 -11.9289  -6.3821  -2.4138   5.0829   6.4303   7.1203

          k = 0.2093 0.3626 0.0000 (  4485 PWs)   bands (ev):

   -21.0669 -13.2042 -11.7628  -8.6448   0.7858   2.8981   3.6993   4.5565

          k = 0.2093 0.4431 0.0000 (  4491 PWs)   bands (ev):

   -20.0626 -14.4994 -12.5901  -7.5344  -0.7160   4.3185   5.0834   6.0231

          k = 0.2093 0.5237 0.0000 (  4499 PWs)   bands (ev):

   -18.9063 -15.9425 -13.0175  -6.3809  -2.1293   5.9893   6.5322   6.8819

          k = 0.2093 0.6043 0.0000 (  4494 PWs)   bands (ev):

   -17.9550 -17.0048 -13.1508  -5.7202  -2.8806   6.8020   7.1861   7.7667

          k = 0.2791 0.4834 0.0000 (  4477 PWs)   bands (ev):

   -18.9962 -15.2788 -13.7323  -6.3931  -1.9808   5.8534   6.2964   7.5860

          k = 0.2791 0.5640 0.0000 (  4488 PWs)   bands (ev):

   -17.8434 -16.3395 -14.2782  -5.2962  -3.1353   6.6536   7.5679   8.5489

          k = 0.3489 0.6043 0.0000 (  4473 PWs)   bands (ev):

   -16.8771 -16.8771 -14.9154  -4.1949  -4.1949   6.4538   8.8010   8.8010

     the Fermi energy is    -4.1949 ev

!    total energy              =     -22.79060280 Ry
     estimated scf accuracy    <          1.3E-11 Ry
     smearing contrib. (-TS)   =      -0.00005015 Ry
     internal energy E=F+TS    =     -22.79055265 Ry

     The total energy is F=E-TS. E is the sum of the following terms:
     one-electron contribution =    -391.14177740 Ry
     hartree contribution      =     196.20059052 Ry
     xc contribution           =      -7.03376689 Ry
     ewald contribution        =     179.18440111 Ry

     convergence has been achieved in   7 iterations

     Forces acting on atoms (cartesian axes, Ry/au):

     atom    1 type  1   force =     0.00000000    0.00000000    0.00000000
     atom    2 type  1   force =     0.00000000    0.00000000    0.00000000

     Total force =     0.000000     Total SCF correction =     0.000000


     Computing stress (Cartesian axis) and pressure

          total   stress  (Ry/bohr**3)                   (kbar)     P=       -8.68
  -0.00003383  -0.00000000   0.00000000           -4.98       -0.00        0.00
   0.00000000  -0.00003383   0.00000000            0.00       -4.98        0.00
   0.00000000   0.00000000  -0.00010931            0.00        0.00      -16.08


     Writing output data file ./work/LiC485.save/
 
     init_run     :      0.13s CPU      0.15s WALL (       2 calls)
     electrons    :     11.98s CPU     13.78s WALL (       9 calls)
     update_pot   :      0.09s CPU      0.10s WALL (       7 calls)
     forces       :      0.08s CPU      0.08s WALL (       9 calls)
     stress       :      0.22s CPU      0.23s WALL (       9 calls)

     Called by init_run:
     wfcinit      :      0.09s CPU      0.10s WALL (       2 calls)
     potinit      :      0.02s CPU      0.02s WALL (       2 calls)
     hinit0       :      0.01s CPU      0.01s WALL (       2 calls)

     Called by electrons:
     c_bands      :     10.40s CPU     11.14s WALL (      75 calls)
     sum_band     :      1.40s CPU      1.49s WALL (      75 calls)
     v_of_rho     :      0.14s CPU      0.16s WALL (      81 calls)
     mix_rho      :      0.03s CPU      0.03s WALL (      75 calls)

     Called by c_bands:
     init_us_2    :      0.09s CPU      0.10s WALL (    4590 calls)
     cegterg      :     10.16s CPU     10.86s WALL (    2029 calls)

     Called by *egterg:
     cdiaghg      :      0.91s CPU      0.97s WALL (   10222 calls)
     h_psi        :      8.59s CPU      9.20s WALL (   10550 calls)
     g_psi        :      0.02s CPU      0.03s WALL (    8467 calls)

     Called by h_psi:
     h_psi:calbec :      0.30s CPU      0.32s WALL (   10550 calls)
     vloc_psi     :      8.12s CPU      8.69s WALL (   10550 calls)
     add_vuspsi   :      0.08s CPU      0.09s WALL (   10550 calls)

     General routines
     calbec       :      0.34s CPU      0.36s WALL (   11765 calls)
     fft          :      0.14s CPU      0.14s WALL (     883 calls)
     ffts         :      0.01s CPU      0.01s WALL (      75 calls)
     fftw         :      8.90s CPU      9.52s WALL (  124922 calls)
 
     Parallel routines
     fft_scatt_xy :      0.57s CPU      0.61s WALL (  125880 calls)
     fft_scatt_yz :      5.28s CPU      5.65s WALL (  125880 calls)
 
     PWSCF        :     12.58s CPU     14.67s WALL

 
   This run was terminated on:  14:18: 5  19Jan2024            

=------------------------------------------------------------------------------=
   JOB DONE.
=------------------------------------------------------------------------------=
