
     Program PWSCF v.6.7MaX starts on 19Jan2024 at 13:41:14 

     This program is part of the open-source Quantum ESPRESSO suite
     for quantum simulation of materials; please cite
         "P. Giannozzi et al., J. Phys.:Condens. Matter 21 395502 (2009);
         "P. Giannozzi et al., J. Phys.:Condens. Matter 29 465901 (2017);
          URL http://www.quantum-espresso.org", 
     in publications or presentations arising from this work. More details at
     http://www.quantum-espresso.org/quote

     Parallel version (MPI), running on    32 processors

     MPI processes distributed on     1 nodes
     R & G space division:  proc/nbgrp/npool/nimage =      32
     Waiting for input...
     Reading input from standard input

     Current dimensions of program PWSCF are:
     Max number of different atomic species (ntypx) = 10
     Max number of k-points (npk) =  40000
     Max angular momentum in pseudopotentials (lmaxx) =  3
     Message from routine read_pp_mesh:
     mesh size missing, using the one in header

     Subspace diagonalization in iterative solution of the eigenvalue problem:
     a serial algorithm will be used

 
     Parallelization info
     --------------------
     sticks:   dense  smooth     PW     G-vecs:    dense   smooth      PW
     Min           8       8      2                 1048     1048     166
     Max           9       9      3                 1089     1089     213
     Sum         283     283     85                34353    34353    6175
 


     bravais-lattice index     =            4
     lattice parameter (alat)  =       4.5300  a.u.
     unit-cell volume          =     719.7506 (a.u.)^3
     number of atoms/cell      =            2
     number of atomic types    =            1
     number of electrons       =         8.00
     number of Kohn-Sham states=            8
     kinetic-energy cutoff     =      50.0000  Ry
     charge density cutoff     =     200.0000  Ry
     scf convergence threshold =      1.0E-08
     mixing beta               =       0.7000
     number of iterations used =            8  plain     mixing
     energy convergence thresh.=      1.0E-04
     force convergence thresh. =      1.0E-08
     press convergence thresh. =      1.0E-03
     Exchange-correlation= PBE
                           (   1   4   3   4   0   0   0)
     nstep                     =           50


     celldm(1)=   4.530000  celldm(2)=   0.000000  celldm(3)=   8.940397
     celldm(4)=   0.000000  celldm(5)=   0.000000  celldm(6)=   0.000000

     crystal axes: (cart. coord. in units of alat)
               a(1) = (   1.000000   0.000000   0.000000 )  
               a(2) = (  -0.500000   0.866025   0.000000 )  
               a(3) = (   0.000000   0.000000   8.940397 )  

     reciprocal axes: (cart. coord. in units 2 pi/alat)
               b(1) = (  1.000000  0.577350  0.000000 )  
               b(2) = (  0.000000  1.154701  0.000000 )  
               b(3) = (  0.000000  0.000000  0.111852 )  


     PseudoPot. # 1 for C  read from file:
     /home/yhkim/qe-6.7/pseudo/ONCV1/1.2/C_ONCV_PBE-1.2.upf
     MD5 check sum: 1a5f83a7b1f58d24996abe00ed223ac6
     Pseudo is Norm-conserving, Zval =  4.0
     Generated using ONCVPSP code by D. R. Hamann
     Using radial grid of  602 points,  4 beta functions with: 
                l(1) =   0
                l(2) =   0
                l(3) =   1
                l(4) =   1

     atomic species   valence    mass     pseudopotential
        C              4.00    12.01070     C ( 1.00)

     24 Sym. Ops., with inversion, found



   Cartesian axes

     site n.     atom                  positions (alat units)
         1           C   tau(   1) = (  -0.0000000   0.5773503   4.4701987  )
         2           C   tau(   2) = (   0.5000000   0.2886751   4.4701987  )

     number of k points=    27  Methfessel-Paxton smearing, width (Ry)=  0.0100
                       cart. coord. in units 2pi/alat
        k(    1) = (   0.0000000   0.0000000   0.0000000), wk =   0.0088889
        k(    2) = (   0.0000000   0.0769800   0.0000000), wk =   0.0533333
        k(    3) = (   0.0000000   0.1539601   0.0000000), wk =   0.0533333
        k(    4) = (   0.0000000   0.2309401   0.0000000), wk =   0.0533333
        k(    5) = (   0.0000000   0.3079201   0.0000000), wk =   0.0533333
        k(    6) = (   0.0000000   0.3849002   0.0000000), wk =   0.0533333
        k(    7) = (   0.0000000   0.4618802   0.0000000), wk =   0.0533333
        k(    8) = (   0.0000000   0.5388603   0.0000000), wk =   0.0533333
        k(    9) = (   0.0666667   0.1154701   0.0000000), wk =   0.0533333
        k(   10) = (   0.0666667   0.1924501   0.0000000), wk =   0.1066667
        k(   11) = (   0.0666667   0.2694301   0.0000000), wk =   0.1066667
        k(   12) = (   0.0666667   0.3464102   0.0000000), wk =   0.1066667
        k(   13) = (   0.0666667   0.4233902   0.0000000), wk =   0.1066667
        k(   14) = (   0.0666667   0.5003702   0.0000000), wk =   0.1066667
        k(   15) = (   0.0666667   0.5773503   0.0000000), wk =   0.0533333
        k(   16) = (   0.1333333   0.2309401   0.0000000), wk =   0.0533333
        k(   17) = (   0.1333333   0.3079201   0.0000000), wk =   0.1066667
        k(   18) = (   0.1333333   0.3849002   0.0000000), wk =   0.1066667
        k(   19) = (   0.1333333   0.4618802   0.0000000), wk =   0.1066667
        k(   20) = (   0.1333333   0.5388603   0.0000000), wk =   0.1066667
        k(   21) = (   0.2000000   0.3464102   0.0000000), wk =   0.0533333
        k(   22) = (   0.2000000   0.4233902   0.0000000), wk =   0.1066667
        k(   23) = (   0.2000000   0.5003702   0.0000000), wk =   0.1066667
        k(   24) = (   0.2000000   0.5773503   0.0000000), wk =   0.0533333
        k(   25) = (   0.2666667   0.4618802   0.0000000), wk =   0.0533333
        k(   26) = (   0.2666667   0.5388603   0.0000000), wk =   0.1066667
        k(   27) = (   0.3333333   0.5773503   0.0000000), wk =   0.0177778

     Dense  grid:    34353 G-vectors     FFT dimensions: (  24,  24, 192)

     Estimated max dynamical RAM per process >       1.91 MB

     Estimated total dynamical RAM >      61.09 MB
 ----2D----2D----2D----2D----2D----2D----2D----2D----2D----2D----2D----2D
  The code is running with the 2D cutoff
  Please refer to:
  Sohier, T., Calandra, M., & Mauri, F. (2017), 
  Density functional perturbation theory for gated two-dimensional heterostructu
 res:
  Theoretical developments and application to flexural phonons in graphene.
  Physical Review B, 96(7), 75448. https://doi.org/10.1103/PhysRevB.96.075448
 ----2D----2D----2D----2D----2D----2D----2D----2D----2D----2D----2D----2D

     Initial potential from superposition of free atoms

     starting charge    7.98607, renormalised to    8.00000

     negative rho (up, down):  1.127E-04 0.000E+00
     Starting wfcs are random

     total cpu time spent up to now is        0.1 secs

     Self-consistent Calculation

     iteration #  1     ecut=    50.00 Ry     beta= 0.70
     Davidson diagonalization with overlap
     ethr =  1.00E-02,  avg # of iterations = 11.4

     negative rho (up, down):  7.525E-08 0.000E+00

     total cpu time spent up to now is        0.5 secs

     total energy              =     -22.74682926 Ry
     estimated scf accuracy    <       0.21184850 Ry

     iteration #  2     ecut=    50.00 Ry     beta= 0.70
     Davidson diagonalization with overlap
     ethr =  2.65E-03,  avg # of iterations =  2.1

     total cpu time spent up to now is        0.6 secs

     total energy              =     -22.77896176 Ry
     estimated scf accuracy    <       0.00221954 Ry

     iteration #  3     ecut=    50.00 Ry     beta= 0.70
     Davidson diagonalization with overlap
     ethr =  2.77E-05,  avg # of iterations = 10.6

     total cpu time spent up to now is        0.8 secs

     total energy              =     -22.78212301 Ry
     estimated scf accuracy    <       0.00015800 Ry

     iteration #  4     ecut=    50.00 Ry     beta= 0.70
     Davidson diagonalization with overlap
     c_bands:  1 eigenvalues not converged
     c_bands:  1 eigenvalues not converged
     ethr =  1.97E-06,  avg # of iterations =  6.9

     total cpu time spent up to now is        1.0 secs

     total energy              =     -22.78215921 Ry
     estimated scf accuracy    <       0.00000028 Ry

     iteration #  5     ecut=    50.00 Ry     beta= 0.70
     Davidson diagonalization with overlap
     c_bands:  1 eigenvalues not converged
     ethr =  3.51E-09,  avg # of iterations =  5.2

     total cpu time spent up to now is        1.2 secs

     total energy              =     -22.78216238 Ry
     estimated scf accuracy    <       0.00000002 Ry

     iteration #  6     ecut=    50.00 Ry     beta= 0.70
     Davidson diagonalization with overlap
     ethr =  3.11E-10,  avg # of iterations =  2.0

     total cpu time spent up to now is        1.3 secs

     End of self-consistent calculation

          k = 0.0000 0.0000 0.0000 (  4279 PWs)   bands (ev):

   -24.2255 -12.2065  -7.0307  -7.0307  -0.9963  -0.2053   0.5784   0.9340

          k = 0.0000 0.0770 0.0000 (  4235 PWs)   bands (ev):

   -24.1153 -12.0722  -7.4617  -7.2706  -0.8457  -0.0522   0.7323   1.0875

          k = 0.0000 0.1540 0.0000 (  4245 PWs)   bands (ev):

   -23.7854 -11.6711  -8.6358  -7.8858  -0.3936   0.4069   1.1943   1.5477

          k = 0.0000 0.2309 0.0000 (  4281 PWs)   bands (ev):

   -23.2383 -11.0103 -10.2516  -8.6517   0.3596   1.1697   1.9641   2.3126

          k = 0.0000 0.3079 0.0000 (  4281 PWs)   bands (ev):

   -22.4780 -12.0629 -10.1038  -9.3911   1.4118   2.2167   3.0409   3.2450

          k = 0.0000 0.3849 0.0000 (  4307 PWs)   bands (ev):

   -21.5117 -13.9119 -10.0064  -8.9885   1.2694   2.7572   3.6368   4.3882

          k = 0.0000 0.4619 0.0000 (  4305 PWs)   bands (ev):

   -20.3509 -15.6991 -10.4385  -7.7526  -0.6410   4.2284   4.5327   5.2960

          k = 0.0000 0.5389 0.0000 (  4292 PWs)   bands (ev):

   -19.0463 -17.3270 -10.6614  -6.7081  -2.0423   4.2433   6.3449   7.2420

          k = 0.0667 0.1155 0.0000 (  4231 PWs)   bands (ev):

   -23.8952 -11.8048  -8.2123  -7.7536  -0.5442   0.2539   1.0403   1.3943

          k = 0.0667 0.1925 0.0000 (  4239 PWs)   bands (ev):

   -23.4565 -11.2731  -9.5100  -8.5410   0.0589   0.8653   1.6564   2.0073

          k = 0.0667 0.2694 0.0000 (  4277 PWs)   bands (ev):

   -22.8033 -11.1631 -10.4883  -9.3563   0.9623   1.7772   2.5804   2.9208

          k = 0.0667 0.3464 0.0000 (  4297 PWs)   bands (ev):

   -21.9399 -12.9632 -10.0635  -9.4735   2.1631   2.1846   3.0396   3.8102

          k = 0.0667 0.4234 0.0000 (  4314 PWs)   bands (ev):

   -20.8758 -14.7675 -10.6007  -8.2805   0.2426   3.6515   4.5314   4.9138

          k = 0.0667 0.5004 0.0000 (  4316 PWs)   bands (ev):

   -19.6322 -16.4793 -10.9350  -7.0687  -1.4709   4.7476   5.4765   6.3298

          k = 0.0667 0.5774 0.0000 (  4314 PWs)   bands (ev):

   -18.5231 -17.7485 -11.0475  -6.4222  -2.2902   4.7170   7.4291   7.5795

          k = 0.1333 0.2309 0.0000 (  4275 PWs)   bands (ev):

   -22.9119 -10.6403 -10.6174  -9.5836   0.8127   1.6275   2.4270   2.7722

          k = 0.1333 0.3079 0.0000 (  4301 PWs)   bands (ev):

   -22.1556 -12.0948 -10.5493  -9.7192   1.8657   2.6615   2.8578   3.5050

          k = 0.1333 0.3849 0.0000 (  4311 PWs)   bands (ev):

   -21.1947 -13.7701 -11.2559  -8.6104   0.9916   3.2133   4.0547   4.8893

          k = 0.1333 0.4619 0.0000 (  4301 PWs)   bands (ev):

   -20.0434 -15.4718 -11.7207  -7.3737  -0.7881   4.8444   5.6884   6.1368

          k = 0.1333 0.5389 0.0000 (  4323 PWs)   bands (ev):

   -18.7569 -17.0527 -11.9546  -6.3086  -2.1482   6.0245   6.7754   7.5014

          k = 0.2000 0.3464 0.0000 (  4325 PWs)   bands (ev):

   -21.3018 -13.1206 -11.8190  -8.7232   1.3042   3.0653   3.8874   4.7367

          k = 0.2000 0.4234 0.0000 (  4321 PWs)   bands (ev):

   -20.2527 -14.4735 -12.6756  -7.5435  -0.3022   4.5534   5.3440   6.2733

          k = 0.2000 0.5004 0.0000 (  4318 PWs)   bands (ev):

   -19.0355 -16.0022 -13.1065  -6.3129  -1.8153   6.3101   6.8820   7.8519

          k = 0.2000 0.5774 0.0000 (  4313 PWs)   bands (ev):

   -17.9720 -17.1861 -13.2398  -5.6037  -2.6242   7.5834   7.7880   8.1961

          k = 0.2667 0.4619 0.0000 (  4319 PWs)   bands (ev):

   -19.1342 -15.2411 -13.9131  -6.3300  -1.6432   6.1645   6.6298   7.9284

          k = 0.2667 0.5389 0.0000 (  4307 PWs)   bands (ev):

   -17.9052 -16.3778 -14.4744  -5.1590  -2.8702   6.9917   7.9836   9.4562

          k = 0.3333 0.5774 0.0000 (  4317 PWs)   bands (ev):

   -16.8734 -16.8734 -15.2281  -3.9897  -3.9897   6.7640   9.4355   9.4356

     the Fermi energy is    -3.9897 ev

!    total energy              =     -22.78216238 Ry
     estimated scf accuracy    <          3.0E-10 Ry
     smearing contrib. (-TS)   =      -0.00005015 Ry
     internal energy E=F+TS    =     -22.78211223 Ry

     The total energy is F=E-TS. E is the sum of the following terms:
     one-electron contribution =    -409.54081753 Ry
     hartree contribution      =     205.44876671 Ry
     xc contribution           =      -7.13355236 Ry
     ewald contribution        =     188.44349095 Ry

     convergence has been achieved in   6 iterations

     Forces acting on atoms (cartesian axes, Ry/au):

     atom    1 type  1   force =     0.00000000    0.00000000    0.00000000
     atom    2 type  1   force =     0.00000000    0.00000000    0.00000000

     Total force =     0.000000     Total SCF correction =     0.000000


     Computing stress (Cartesian axis) and pressure

          total   stress  (Ry/bohr**3)                   (kbar)     P=       23.32
   0.00029582   0.00000000   0.00000000           43.52        0.00        0.00
   0.00000000   0.00029582  -0.00000000            0.00       43.52       -0.00
  -0.00000000   0.00000000  -0.00011608           -0.00        0.00      -17.08


     BFGS Geometry Optimization
     Energy error            =      0.0E+00
     Gradient error          =      0.0E+00
     Cell gradient error     =      3.0E-04


     number of scf cycles    =   1
     number of bfgs steps    =   0

     enthalpy new            =     -22.7821623836 Ry

     new trust radius        =       0.0396810717 bohr
     new conv_thr            =       0.0000000100 Ry

     new unit-cell volume =    730.43571 a.u.^3 (   108.23940 Ang^3 )
     density =      0.36852 g/cm^3

CELL_PARAMETERS (alat=  4.53000000)
   1.007395412   0.000000000   0.000000000
  -0.503697706   0.872430018   0.000000000
   0.000000000   0.000000000   8.940397351

ATOMIC_POSITIONS (crystal)
C             0.3333333333        0.6666666667        0.5000000000
C             0.6666666667        0.3333333333        0.5000000000



     Writing output data file ./work/LiC453.save/
     NEW-OLD atomic charge density approx. for the potential

     negative rho (up, down):  8.086E-06 0.000E+00
     extrapolated charge    8.11682, renormalised to    8.00000

     total cpu time spent up to now is        1.3 secs

     Self-consistent Calculation

     iteration #  1     ecut=    50.00 Ry     beta= 0.70
     Davidson diagonalization with overlap
     c_bands:  1 eigenvalues not converged
     c_bands:  1 eigenvalues not converged
     c_bands:  1 eigenvalues not converged
     c_bands:  1 eigenvalues not converged
     c_bands:  1 eigenvalues not converged
     ethr =  1.00E-06,  avg # of iterations = 13.7

     total cpu time spent up to now is        1.7 secs

     total energy              =      22.76383290 Ry
     estimated scf accuracy    <      26.19090688 Ry

     iteration #  2     ecut=    50.00 Ry     beta= 0.70
     Davidson diagonalization with overlap
     c_bands:  1 eigenvalues not converged
     c_bands:  2 eigenvalues not converged
     c_bands:  1 eigenvalues not converged
     ethr =  1.00E-02,  avg # of iterations = 15.6

     total cpu time spent up to now is        2.0 secs

     total energy              =     -31.01366770 Ry
     estimated scf accuracy    <      13.93119973 Ry

     iteration #  3     ecut=    50.00 Ry     beta= 0.70
     Davidson diagonalization with overlap
     ethr =  1.00E-02,  avg # of iterations =  2.3

     total cpu time spent up to now is        2.1 secs

     total energy              =     -25.92587599 Ry
     estimated scf accuracy    <       4.70457641 Ry

     iteration #  4     ecut=    50.00 Ry     beta= 0.70
     Davidson diagonalization with overlap
     ethr =  1.00E-02,  avg # of iterations =  2.3

     total cpu time spent up to now is        2.3 secs

     total energy              =     -24.33625765 Ry
     estimated scf accuracy    <       1.79455403 Ry

     iteration #  5     ecut=    50.00 Ry     beta= 0.70
     Davidson diagonalization with overlap
     ethr =  1.00E-02,  avg # of iterations =  1.4

     total cpu time spent up to now is        2.3 secs

     total energy              =     -23.20633377 Ry
     estimated scf accuracy    <       0.90484369 Ry

     iteration #  6     ecut=    50.00 Ry     beta= 0.70
     Davidson diagonalization with overlap
     ethr =  1.00E-02,  avg # of iterations =  1.9

     total cpu time spent up to now is        2.4 secs

     total energy              =     -23.32610754 Ry
     estimated scf accuracy    <       0.25868667 Ry

     iteration #  7     ecut=    50.00 Ry     beta= 0.70
     Davidson diagonalization with overlap
     ethr =  3.23E-03,  avg # of iterations =  2.3

     total cpu time spent up to now is        2.6 secs

     total energy              =     -23.49166502 Ry
     estimated scf accuracy    <       0.31638102 Ry

     iteration #  8     ecut=    50.00 Ry     beta= 0.70
     Davidson diagonalization with overlap
     ethr =  3.23E-03,  avg # of iterations =  1.3

     total cpu time spent up to now is        2.6 secs

     total energy              =     -23.36998790 Ry
     estimated scf accuracy    <       0.40951353 Ry

     iteration #  9     ecut=    50.00 Ry     beta= 0.70
     Davidson diagonalization with overlap
     ethr =  3.23E-03,  avg # of iterations =  1.6

     total cpu time spent up to now is        2.7 secs

     total energy              =     -22.97867442 Ry
     estimated scf accuracy    <       0.34587487 Ry

     iteration # 10     ecut=    50.00 Ry     beta= 0.70
     Davidson diagonalization with overlap
     ethr =  3.23E-03,  avg # of iterations =  2.4

     total cpu time spent up to now is        2.9 secs

     total energy              =     -22.77890592 Ry
     estimated scf accuracy    <       0.11257420 Ry

     iteration # 11     ecut=    50.00 Ry     beta= 0.70
     Davidson diagonalization with overlap
     ethr =  1.41E-03,  avg # of iterations =  7.5

     negative rho (up, down):  1.306E-05 0.000E+00

     total cpu time spent up to now is        3.0 secs

     total energy              =     -22.78462558 Ry
     estimated scf accuracy    <       0.00141756 Ry

     iteration # 12     ecut=    50.00 Ry     beta= 0.70
     Davidson diagonalization with overlap
     c_bands:  1 eigenvalues not converged
     c_bands:  1 eigenvalues not converged
     ethr =  1.77E-05,  avg # of iterations =  8.4

     negative rho (up, down):  7.673E-04 0.000E+00

     total cpu time spent up to now is        3.2 secs

     total energy              =     -22.78475639 Ry
     estimated scf accuracy    <       0.00042455 Ry

     iteration # 13     ecut=    50.00 Ry     beta= 0.70
     Davidson diagonalization with overlap
     ethr =  5.31E-06,  avg # of iterations =  5.3

     negative rho (up, down):  5.390E-04 0.000E+00

     total cpu time spent up to now is        3.4 secs

     total energy              =     -22.78457414 Ry
     estimated scf accuracy    <       0.00063003 Ry

     iteration # 14     ecut=    50.00 Ry     beta= 0.70
     Davidson diagonalization with overlap
     ethr =  5.31E-06,  avg # of iterations =  2.7

     negative rho (up, down):  4.148E-04 0.000E+00

     total cpu time spent up to now is        3.5 secs

     total energy              =     -22.78477927 Ry
     estimated scf accuracy    <       0.00012504 Ry

     iteration # 15     ecut=    50.00 Ry     beta= 0.70
     Davidson diagonalization with overlap
     ethr =  1.56E-06,  avg # of iterations =  5.2

     negative rho (up, down):  4.133E-04 0.000E+00

     total cpu time spent up to now is        3.7 secs

     total energy              =     -22.78495621 Ry
     estimated scf accuracy    <       0.00044563 Ry

     iteration # 16     ecut=    50.00 Ry     beta= 0.70
     Davidson diagonalization with overlap
     ethr =  1.56E-06,  avg # of iterations =  3.7

     negative rho (up, down):  4.699E-04 0.000E+00

     total cpu time spent up to now is        3.8 secs

     total energy              =     -22.78515013 Ry
     estimated scf accuracy    <       0.00071787 Ry

     iteration # 17     ecut=    50.00 Ry     beta= 0.70
     Davidson diagonalization with overlap
     c_bands:  1 eigenvalues not converged
     ethr =  1.56E-06,  avg # of iterations =  4.9

     negative rho (up, down):  2.806E-04 0.000E+00

     total cpu time spent up to now is        3.9 secs

     total energy              =     -22.78482181 Ry
     estimated scf accuracy    <       0.00112724 Ry

     iteration # 18     ecut=    50.00 Ry     beta= 0.70
     Davidson diagonalization with overlap
     ethr =  1.56E-06,  avg # of iterations =  3.6

     negative rho (up, down):  1.293E-07 0.000E+00

     total cpu time spent up to now is        4.1 secs

     total energy              =     -22.78456541 Ry
     estimated scf accuracy    <       0.00051854 Ry

     iteration # 19     ecut=    50.00 Ry     beta= 0.70
     Davidson diagonalization with overlap
     c_bands:  1 eigenvalues not converged
     ethr =  1.56E-06,  avg # of iterations =  7.9

     negative rho (up, down):  1.387E-05 0.000E+00

     total cpu time spent up to now is        4.3 secs

     total energy              =     -22.78466170 Ry
     estimated scf accuracy    <       0.00001713 Ry

     iteration # 20     ecut=    50.00 Ry     beta= 0.70
     Davidson diagonalization with overlap
     ethr =  2.14E-07,  avg # of iterations =  5.1

     total cpu time spent up to now is        4.4 secs

     total energy              =     -22.78466478 Ry
     estimated scf accuracy    <       0.00000182 Ry

     iteration # 21     ecut=    50.00 Ry     beta= 0.70
     Davidson diagonalization with overlap
     ethr =  2.28E-08,  avg # of iterations =  4.5

     total cpu time spent up to now is        4.6 secs

     total energy              =     -22.78466504 Ry
     estimated scf accuracy    <       0.00000005 Ry

     iteration # 22     ecut=    50.00 Ry     beta= 0.70
     Davidson diagonalization with overlap
     ethr =  5.69E-10,  avg # of iterations =  2.0

     total cpu time spent up to now is        4.7 secs

     End of self-consistent calculation

          k = 0.0000 0.0000 0.0000 (  4279 PWs)   bands (ev):

   -24.1135 -12.1180  -7.1070  -7.1070  -0.9928  -0.2059   0.5783   0.9341

          k =-0.0000 0.0764 0.0000 (  4235 PWs)   bands (ev):

   -24.0046 -11.9861  -7.5338  -7.3412  -0.8444  -0.0551   0.7300   1.0853

          k =-0.0000 0.1528 0.0000 (  4245 PWs)   bands (ev):

   -23.6787 -11.5920  -8.6971  -7.9431  -0.3987   0.3971   1.1852   1.5386

          k =-0.0000 0.2292 0.0000 (  4281 PWs)   bands (ev):

   -23.1385 -10.9430 -10.2964  -8.6934   0.3435   1.1484   1.9438   2.2920

          k =-0.0000 0.3057 0.0000 (  4281 PWs)   bands (ev):

   -22.3878 -12.0874 -10.0529  -9.4183   1.3805   2.1761   3.0047   3.0990

          k =-0.0000 0.3821 0.0000 (  4307 PWs)   bands (ev):

   -21.4341 -13.9143 -10.0220  -8.9584   1.1122   2.7054   3.5767   4.2133

          k =-0.0000 0.4585 0.0000 (  4305 PWs)   bands (ev):

   -20.2899 -15.6780 -10.4460  -7.7471  -0.7557   3.9964   4.3959   5.2108

          k =-0.0000 0.5349 0.0000 (  4292 PWs)   bands (ev):

   -19.0128 -17.2747 -10.6648  -6.7258  -2.1240   3.9470   6.2389   7.1260

          k = 0.0662 0.1146 0.0000 (  4231 PWs)   bands (ev):

   -23.7872 -11.7234  -8.2786  -7.8132  -0.5472   0.2464   1.0336   1.3876

          k = 0.0662 0.1910 0.0000 (  4239 PWs)   bands (ev):

   -23.3539 -11.2011  -9.5643  -8.5847   0.0472   0.8485   1.6407   1.9914

          k = 0.0662 0.2675 0.0000 (  4277 PWs)   bands (ev):

   -22.7089 -11.1993 -10.4303  -9.3854   0.9374   1.7465   2.5510   2.8906

          k = 0.0662 0.3439 0.0000 (  4297 PWs)   bands (ev):

   -21.8566 -12.9782 -10.0803  -9.4343   2.0090   2.1206   2.9839   3.7623

          k = 0.0662 0.4203 0.0000 (  4314 PWs)   bands (ev):

   -20.8069 -14.7597 -10.6082  -8.2641   0.1059   3.5854   4.4583   4.6281

          k = 0.0662 0.4967 0.0000 (  4316 PWs)   bands (ev):

   -19.5831 -16.4462 -10.9370  -7.0775  -1.5685   4.4554   5.3777   6.2283

          k = 0.0662 0.5731 0.0000 (  4314 PWs)   bands (ev):

   -18.5177 -17.6701 -11.0476  -6.4462  -2.3678   4.4159   7.3050   7.4571

          k = 0.1324 0.2292 0.0000 (  4275 PWs)   bands (ev):

   -22.8162 -10.6877 -10.5571  -9.6063   0.7900   1.5992   2.3998   2.7447

          k = 0.1324 0.3057 0.0000 (  4301 PWs)   bands (ev):

   -22.0695 -12.1264 -10.5568  -9.6753   1.8276   2.5688   2.7051   3.4621

          k = 0.1324 0.3821 0.0000 (  4311 PWs)   bands (ev):

   -21.1213 -13.7790 -11.2549  -8.5873   0.8325   3.1553   3.9888   4.8251

          k = 0.1324 0.4585 0.0000 (  4301 PWs)   bands (ev):

   -19.9865 -15.4565 -11.7143  -7.3751  -0.9070   4.7609   5.5962   5.8354

          k = 0.1324 0.5349 0.0000 (  4323 PWs)   bands (ev):

   -18.7271 -17.0064 -11.9453  -6.3334  -2.2353   5.7166   6.6601   7.3753

          k = 0.1985 0.3439 0.0000 (  4325 PWs)   bands (ev):

   -21.2269 -13.1495 -11.8009  -8.6979   1.1341   3.0095   3.8244   4.6756

          k = 0.1985 0.4203 0.0000 (  4321 PWs)   bands (ev):

   -20.1922 -14.4832 -12.6486  -7.5408  -0.4384   4.4754   5.2574   6.1893

          k = 0.1985 0.4967 0.0000 (  4318 PWs)   bands (ev):

   -18.9946 -15.9837 -13.0791  -6.3354  -1.9185   6.2045   6.7661   7.5381

          k = 0.1985 0.5731 0.0000 (  4313 PWs)   bands (ev):

   -17.9696 -17.1262 -13.2122  -5.6422  -2.7084   7.4518   7.4674   8.0543

          k = 0.2647 0.4585 0.0000 (  4319 PWs)   bands (ev):

   -19.0905 -15.2554 -13.8552  -6.3512  -1.7547   6.0616   6.5192   7.8100

          k = 0.2647 0.5349 0.0000 (  4307 PWs)   bands (ev):

   -17.8866 -16.3660 -14.4125  -5.2044  -2.9570   6.8796   7.8476   9.3104

          k = 0.3309 0.5731 0.0000 (  4317 PWs)   bands (ev):

   -16.8775 -16.8775 -15.1256  -4.0573  -4.0573   6.6611   9.2336   9.2336

     the Fermi energy is    -4.0573 ev

!    total energy              =     -22.78466505 Ry
     estimated scf accuracy    <          2.7E-09 Ry
     smearing contrib. (-TS)   =      -0.00005015 Ry
     internal energy E=F+TS    =     -22.78461490 Ry

     The total energy is F=E-TS. E is the sum of the following terms:
     one-electron contribution =    -403.47292138 Ry
     hartree contribution      =     202.39846022 Ry
     xc contribution           =      -7.10074336 Ry
     ewald contribution        =     185.39058962 Ry

     convergence has been achieved in  22 iterations

     Forces acting on atoms (cartesian axes, Ry/au):

     atom    1 type  1   force =     0.00000000    0.00000000    0.00000000
     atom    2 type  1   force =     0.00000000    0.00000000    0.00000000

     Total force =     0.000000     Total SCF correction =     0.000000


     Computing stress (Cartesian axis) and pressure

          total   stress  (Ry/bohr**3)                   (kbar)     P=       11.35
   0.00017412  -0.00000000   0.00000000           25.61       -0.00        0.00
  -0.00000000   0.00017412  -0.00000000           -0.00       25.61       -0.00
   0.00000000  -0.00000000  -0.00011687            0.00       -0.00      -17.19

     Energy error            =      2.5E-03
     Gradient error          =      0.0E+00
     Cell gradient error     =      1.7E-04


     number of scf cycles    =   2
     number of bfgs steps    =   1

     enthalpy old            =     -22.7821623836 Ry
     enthalpy new            =     -22.7846650485 Ry

     CASE: enthalpy_new < enthalpy_old

     new trust radius        =       0.0436491788 bohr
     new conv_thr            =            1.0E-10 Ry

     new unit-cell volume =    742.28022 a.u.^3 (   109.99458 Ang^3 )
     density =      0.36264 g/cm^3

CELL_PARAMETERS (alat=  4.53000000)
   1.015530365   0.000000000   0.000000000
  -0.507765183   0.879475095   0.000000000
   0.000000000   0.000000000   8.940397351

ATOMIC_POSITIONS (crystal)
C             0.3333333333        0.6666666667        0.5000000000
C             0.6666666667        0.3333333333        0.5000000000



     Writing output data file ./work/LiC453.save/
     NEW-OLD atomic charge density approx. for the potential

     negative rho (up, down):  1.492E-05 0.000E+00
     extrapolated charge    8.12743, renormalised to    8.00000

     total cpu time spent up to now is        4.8 secs

     Self-consistent Calculation

     iteration #  1     ecut=    50.00 Ry     beta= 0.70
     Davidson diagonalization with overlap
     c_bands:  2 eigenvalues not converged
     c_bands:  1 eigenvalues not converged
     c_bands:  2 eigenvalues not converged
     ethr =  1.00E-06,  avg # of iterations = 13.1

     total cpu time spent up to now is        5.1 secs

     total energy              =      45.22873269 Ry
     estimated scf accuracy    <      39.19770809 Ry

     iteration #  2     ecut=    50.00 Ry     beta= 0.70
     Davidson diagonalization with overlap
     c_bands:  1 eigenvalues not converged
     c_bands:  4 eigenvalues not converged
     c_bands:  1 eigenvalues not converged
     c_bands:  3 eigenvalues not converged
     c_bands:  2 eigenvalues not converged
     c_bands:  1 eigenvalues not converged
     c_bands:  1 eigenvalues not converged
     ethr =  1.00E-02,  avg # of iterations = 16.5

     total cpu time spent up to now is        5.5 secs

     total energy              =     -35.07573887 Ry
     estimated scf accuracy    <      20.69463315 Ry

     iteration #  3     ecut=    50.00 Ry     beta= 0.70
     Davidson diagonalization with overlap
     ethr =  1.00E-02,  avg # of iterations =  3.3

     total cpu time spent up to now is        5.6 secs

     total energy              =     -27.21258770 Ry
     estimated scf accuracy    <       7.02847859 Ry

     iteration #  4     ecut=    50.00 Ry     beta= 0.70
     Davidson diagonalization with overlap
     ethr =  1.00E-02,  avg # of iterations =  2.8

     total cpu time spent up to now is        5.8 secs

     total energy              =     -25.19764518 Ry
     estimated scf accuracy    <       2.51414127 Ry

     iteration #  5     ecut=    50.00 Ry     beta= 0.70
     Davidson diagonalization with overlap
     ethr =  1.00E-02,  avg # of iterations =  1.6

     total cpu time spent up to now is        5.9 secs

     total energy              =     -23.49210932 Ry
     estimated scf accuracy    <       1.37951786 Ry

     iteration #  6     ecut=    50.00 Ry     beta= 0.70
     Davidson diagonalization with overlap
     ethr =  1.00E-02,  avg # of iterations =  2.0

     total cpu time spent up to now is        6.0 secs

     total energy              =     -23.57310528 Ry
     estimated scf accuracy    <       0.42189903 Ry

     iteration #  7     ecut=    50.00 Ry     beta= 0.70
     Davidson diagonalization with overlap
     ethr =  5.27E-03,  avg # of iterations =  1.4

     total cpu time spent up to now is        6.1 secs

     total energy              =     -22.91492759 Ry
     estimated scf accuracy    <       0.45731372 Ry

     iteration #  8     ecut=    50.00 Ry     beta= 0.70
     Davidson diagonalization with overlap
     ethr =  5.27E-03,  avg # of iterations =  3.3

     total cpu time spent up to now is        6.2 secs

     total energy              =     -23.66145919 Ry
     estimated scf accuracy    <       0.08921184 Ry

     iteration #  9     ecut=    50.00 Ry     beta= 0.70
     Davidson diagonalization with overlap
     ethr =  1.12E-03,  avg # of iterations =  5.1

     total cpu time spent up to now is        6.3 secs

     total energy              =     -23.71038524 Ry
     estimated scf accuracy    <       0.50154239 Ry

     iteration # 10     ecut=    50.00 Ry     beta= 0.70
     Davidson diagonalization with overlap
     ethr =  1.12E-03,  avg # of iterations =  1.0

     negative rho (up, down):  9.787E-08 0.000E+00

     total cpu time spent up to now is        6.4 secs

     total energy              =     -22.76131084 Ry
     estimated scf accuracy    <       0.52312723 Ry

     iteration # 11     ecut=    50.00 Ry     beta= 0.70
     Davidson diagonalization with overlap
     ethr =  1.12E-03,  avg # of iterations =  8.6

     negative rho (up, down):  2.052E-06 0.000E+00

     total cpu time spent up to now is        6.6 secs

     total energy              =     -22.78773666 Ry
     estimated scf accuracy    <       0.00597809 Ry

     iteration # 12     ecut=    50.00 Ry     beta= 0.70
     Davidson diagonalization with overlap
     ethr =  7.47E-05,  avg # of iterations =  5.6

     negative rho (up, down):  1.940E-03 0.000E+00

     total cpu time spent up to now is        6.7 secs

     total energy              =     -22.79058182 Ry
     estimated scf accuracy    <       0.00482277 Ry

     iteration # 13     ecut=    50.00 Ry     beta= 0.70
     Davidson diagonalization with overlap
     ethr =  6.03E-05,  avg # of iterations =  3.0

     negative rho (up, down):  3.488E-03 0.000E+00

     total cpu time spent up to now is        6.9 secs

     total energy              =     -22.79365120 Ry
     estimated scf accuracy    <       0.01350419 Ry

     iteration # 14     ecut=    50.00 Ry     beta= 0.70
     Davidson diagonalization with overlap
     ethr =  6.03E-05,  avg # of iterations =  2.6

     negative rho (up, down):  6.366E-02 0.000E+00

     total cpu time spent up to now is        7.0 secs

     total energy              =     -22.85921293 Ry
     estimated scf accuracy    <       0.02252365 Ry

     iteration # 15     ecut=    50.00 Ry     beta= 0.70
     Davidson diagonalization with overlap
     ethr =  6.03E-05,  avg # of iterations =  7.3

     negative rho (up, down):  1.554E-03 0.000E+00

     total cpu time spent up to now is        7.2 secs

     total energy              =     -22.72669444 Ry
     estimated scf accuracy    <       0.32407649 Ry

     iteration # 16     ecut=    50.00 Ry     beta= 0.70
     Davidson diagonalization with overlap
     ethr =  6.03E-05,  avg # of iterations =  8.6

     negative rho (up, down):  7.817E-03 0.000E+00

     total cpu time spent up to now is        7.4 secs

     total energy              =     -22.78651104 Ry
     estimated scf accuracy    <       0.00395744 Ry

     iteration # 17     ecut=    50.00 Ry     beta= 0.70
     Davidson diagonalization with overlap
     ethr =  4.95E-05,  avg # of iterations =  4.5

     negative rho (up, down):  5.999E-03 0.000E+00

     total cpu time spent up to now is        7.5 secs

     total energy              =     -22.78708661 Ry
     estimated scf accuracy    <       0.00126560 Ry

     iteration # 18     ecut=    50.00 Ry     beta= 0.70
     Davidson diagonalization with overlap
     ethr =  1.58E-05,  avg # of iterations =  4.4

     negative rho (up, down):  5.292E-03 0.000E+00

     total cpu time spent up to now is        7.7 secs

     total energy              =     -22.78595623 Ry
     estimated scf accuracy    <       0.00226151 Ry

     iteration # 19     ecut=    50.00 Ry     beta= 0.70
     Davidson diagonalization with overlap
     ethr =  1.58E-05,  avg # of iterations =  4.6

     negative rho (up, down):  4.745E-03 0.000E+00

     total cpu time spent up to now is        7.8 secs

     total energy              =     -22.78617949 Ry
     estimated scf accuracy    <       0.00019618 Ry

     iteration # 20     ecut=    50.00 Ry     beta= 0.70
     Davidson diagonalization with overlap
     ethr =  2.45E-06,  avg # of iterations =  4.6

     negative rho (up, down):  4.546E-03 0.000E+00

     total cpu time spent up to now is        7.9 secs

     total energy              =     -22.78617651 Ry
     estimated scf accuracy    <       0.00019390 Ry

     iteration # 21     ecut=    50.00 Ry     beta= 0.70
     Davidson diagonalization with overlap
     ethr =  2.42E-06,  avg # of iterations =  1.0

     negative rho (up, down):  4.481E-03 0.000E+00

     total cpu time spent up to now is        8.0 secs

     total energy              =     -22.78617014 Ry
     estimated scf accuracy    <       0.00019011 Ry

     iteration # 22     ecut=    50.00 Ry     beta= 0.70
     Davidson diagonalization with overlap
     ethr =  2.38E-06,  avg # of iterations =  1.0

     negative rho (up, down):  4.410E-03 0.000E+00

     total cpu time spent up to now is        8.1 secs

     total energy              =     -22.78616382 Ry
     estimated scf accuracy    <       0.00017930 Ry

     iteration # 23     ecut=    50.00 Ry     beta= 0.70
     Davidson diagonalization with overlap
     ethr =  2.24E-06,  avg # of iterations =  1.5

     negative rho (up, down):  2.019E-03 0.000E+00

     total cpu time spent up to now is        8.2 secs

     total energy              =     -22.78603225 Ry
     estimated scf accuracy    <       0.00017035 Ry

     iteration # 24     ecut=    50.00 Ry     beta= 0.70
     Davidson diagonalization with overlap
     c_bands:  1 eigenvalues not converged
     ethr =  2.13E-06,  avg # of iterations =  8.3

     negative rho (up, down):  1.202E-05 0.000E+00

     total cpu time spent up to now is        8.4 secs

     total energy              =     -22.78596771 Ry
     estimated scf accuracy    <       0.00005944 Ry

     iteration # 25     ecut=    50.00 Ry     beta= 0.70
     Davidson diagonalization with overlap
     ethr =  7.43E-07,  avg # of iterations =  8.7

     total cpu time spent up to now is        8.6 secs

     total energy              =     -22.78597620 Ry
     estimated scf accuracy    <       0.00000015 Ry

     iteration # 26     ecut=    50.00 Ry     beta= 0.70
     Davidson diagonalization with overlap
     ethr =  1.91E-09,  avg # of iterations =  4.4

     total cpu time spent up to now is        8.8 secs

     total energy              =     -22.78597638 Ry
     estimated scf accuracy    <       0.00000003 Ry

     iteration # 27     ecut=    50.00 Ry     beta= 0.70
     Davidson diagonalization with overlap
     ethr =  3.87E-10,  avg # of iterations =  2.0

     total cpu time spent up to now is        8.9 secs

     total energy              =     -22.78597638 Ry
     estimated scf accuracy    <          3.9E-09 Ry

     iteration # 28     ecut=    50.00 Ry     beta= 0.70
     Davidson diagonalization with overlap
     ethr =  4.89E-11,  avg # of iterations =  2.3

     total cpu time spent up to now is        9.0 secs

     total energy              =     -22.78597638 Ry
     estimated scf accuracy    <          2.0E-10 Ry

     iteration # 29     ecut=    50.00 Ry     beta= 0.70
     Davidson diagonalization with overlap
     ethr =  2.48E-12,  avg # of iterations =  2.6

     total cpu time spent up to now is        9.1 secs

     End of self-consistent calculation

          k = 0.0000 0.0000 0.0000 (  4279 PWs)   bands (ev):

   -23.9921 -12.0232  -7.1881  -7.1881  -0.9885  -0.2060   0.5775   0.9334

          k =-0.0000 0.0758 0.0000 (  4235 PWs)   bands (ev):

   -23.8846 -11.8937  -7.6103  -7.4161  -0.8423  -0.0577   0.7268   1.0821

          k =-0.0000 0.1516 0.0000 (  4245 PWs)   bands (ev):

   -23.5632 -11.5073  -8.7624  -8.0038  -0.4036   0.3871   1.1748   1.5280

          k =-0.0000 0.2274 0.0000 (  4281 PWs)   bands (ev):

   -23.0304 -10.8710 -10.3441  -8.7374   0.3270   1.1260   1.9212   2.2690

          k =-0.0000 0.3032 0.0000 (  4281 PWs)   bands (ev):

   -22.2902 -12.1133  -9.9985  -9.4467   1.3474   2.1316   2.9080   2.9646

          k =-0.0000 0.3790 0.0000 (  4307 PWs)   bands (ev):

   -21.3503 -13.9162 -10.0380  -8.9264   0.9423   2.6502   3.5124   3.9315

          k =-0.0000 0.4548 0.0000 (  4305 PWs)   bands (ev):

   -20.2242 -15.6544 -10.4534  -7.7415  -0.8800   3.7065   4.2890   5.1203

          k =-0.0000 0.5306 0.0000 (  4292 PWs)   bands (ev):

   -18.9775 -17.2168 -10.6678  -6.7451  -2.2129   3.6277   6.1258   7.0015

          k = 0.0656 0.1137 0.0000 (  4231 PWs)   bands (ev):

   -23.6702 -11.6361  -8.3491  -7.8764  -0.5498   0.2389   1.0255   1.3795

          k = 0.0656 0.1895 0.0000 (  4239 PWs)   bands (ev):

   -23.2428 -11.1239  -9.6223  -8.6308   0.0353   0.8311   1.6229   1.9734

          k = 0.0656 0.2653 0.0000 (  4277 PWs)   bands (ev):

   -22.6068 -11.2380 -10.3683  -9.4157   0.9114   1.7140   2.5186   2.8566

          k = 0.0656 0.3411 0.0000 (  4297 PWs)   bands (ev):

   -21.7666 -12.9938 -10.0974  -9.3924   1.8177   2.0756   2.9261   3.7095

          k = 0.0656 0.4169 0.0000 (  4314 PWs)   bands (ev):

   -20.7326 -14.7506 -10.6154  -8.2469  -0.0420   3.5139   4.3175   4.3799

          k = 0.0656 0.4927 0.0000 (  4316 PWs)   bands (ev):

   -19.5306 -16.4096 -10.9382  -7.0873  -1.6743   4.1374   5.2752   6.1194

          k = 0.0656 0.5685 0.0000 (  4314 PWs)   bands (ev):

   -18.5104 -17.5862 -11.0468  -6.4723  -2.4521   4.0916   7.1721   7.3263

          k = 0.1313 0.2274 0.0000 (  4275 PWs)   bands (ev):

   -22.7125 -10.7381 -10.4926  -9.6300   0.7663   1.5694   2.3698   2.7143

          k = 0.1313 0.3032 0.0000 (  4301 PWs)   bands (ev):

   -21.9764 -12.1600 -10.5638  -9.6284   1.7872   2.3903   2.6193   3.4149

          k = 0.1313 0.3790 0.0000 (  4311 PWs)   bands (ev):

   -21.0420 -13.7884 -11.2527  -8.5629   0.6609   3.0936   3.9185   4.7556

          k = 0.1313 0.4548 0.0000 (  4301 PWs)   bands (ev):

   -19.9253 -15.4396 -11.7060  -7.3769  -1.0355   4.6709   5.4978   5.5083

          k = 0.1313 0.5306 0.0000 (  4323 PWs)   bands (ev):

   -18.6956 -16.9555 -11.9340  -6.3603  -2.3296   5.3829   6.5381   7.2401

          k = 0.1969 0.3411 0.0000 (  4325 PWs)   bands (ev):

   -21.1460 -13.1801 -11.7804  -8.6710   0.9509   2.9502   3.7573   4.6090

          k = 0.1969 0.4169 0.0000 (  4321 PWs)   bands (ev):

   -20.1271 -14.4935 -12.6178  -7.5383  -0.5852   4.3922   5.1646   6.0980

          k = 0.1969 0.4927 0.0000 (  4318 PWs)   bands (ev):

   -18.9509 -15.9637 -13.0476  -6.3599  -2.0299   6.0910   6.6420   7.1940

          k = 0.1969 0.5685 0.0000 (  4313 PWs)   bands (ev):

   -17.9658 -17.0632 -13.1805  -5.6839  -2.7995   7.1189   7.9029   8.1204

          k = 0.2626 0.4548 0.0000 (  4319 PWs)   bands (ev):

   -19.0437 -15.2701 -13.7915  -6.3743  -1.8747   5.9515   6.4009   7.7299

          k = 0.2626 0.5306 0.0000 (  4307 PWs)   bands (ev):

   -17.8668 -16.3538 -14.3431  -5.2534  -3.0507   6.7594   7.7009   9.1636

          k = 0.3282 0.5685 0.0000 (  4317 PWs)   bands (ev):

   -16.8809 -16.8809 -15.0154  -4.1303  -4.1303   6.5506   9.0100   9.0100

     the Fermi energy is    -4.1303 ev

!    total energy              =     -22.78597638 Ry
     estimated scf accuracy    <          1.1E-11 Ry
     smearing contrib. (-TS)   =      -0.00005015 Ry
     internal energy E=F+TS    =     -22.78592623 Ry

     The total energy is F=E-TS. E is the sum of the following terms:
     one-electron contribution =    -396.95416377 Ry
     hartree contribution      =     199.12195180 Ry
     xc contribution           =      -7.06532862 Ry
     ewald contribution        =     182.11161437 Ry

     convergence has been achieved in  29 iterations

     Forces acting on atoms (cartesian axes, Ry/au):

     atom    1 type  1   force =     0.00000000    0.00000000    0.00000000
     atom    2 type  1   force =     0.00000000    0.00000000    0.00000000

     Total force =     0.000000     Total SCF correction =     0.000000


     Computing stress (Cartesian axis) and pressure

          total   stress  (Ry/bohr**3)                   (kbar)     P=       -0.95
   0.00004899  -0.00000000   0.00000000            7.21       -0.00        0.00
   0.00000000   0.00004899   0.00000000            0.00        7.21        0.00
  -0.00000000   0.00000000  -0.00011729           -0.00        0.00      -17.25

     Energy error            =      1.3E-03
     Gradient error          =      0.0E+00
     Cell gradient error     =      4.9E-05


     number of scf cycles    =   3
     number of bfgs steps    =   2

     enthalpy old            =     -22.7846650485 Ry
     enthalpy new            =     -22.7859763787 Ry

     CASE: enthalpy_new < enthalpy_old

     new trust radius        =       0.0172834567 bohr
     new conv_thr            =            1.0E-10 Ry

     new unit-cell volume =    746.99653 a.u.^3 (   110.69347 Ang^3 )
     density =      0.36035 g/cm^3

CELL_PARAMETERS (alat=  4.53000000)
   1.018751505   0.000000000   0.000000000
  -0.509375753   0.882264684   0.000000000
   0.000000000   0.000000000   8.940397351

ATOMIC_POSITIONS (crystal)
C             0.3333333333        0.6666666667        0.5000000000
C             0.6666666667        0.3333333333        0.5000000000



     Writing output data file ./work/LiC453.save/
     NEW-OLD atomic charge density approx. for the potential

     negative rho (up, down):  4.219E-06 0.000E+00
     extrapolated charge    8.05042, renormalised to    8.00000

     total cpu time spent up to now is        9.2 secs

     Self-consistent Calculation

     iteration #  1     ecut=    50.00 Ry     beta= 0.70
     Davidson diagonalization with overlap
     c_bands:  1 eigenvalues not converged
     c_bands:  1 eigenvalues not converged
     c_bands:  1 eigenvalues not converged
     c_bands:  3 eigenvalues not converged
     ethr =  1.00E-06,  avg # of iterations = 14.9

     total cpu time spent up to now is        9.5 secs

     total energy              =     -22.74478517 Ry
     estimated scf accuracy    <       0.01501547 Ry

     iteration #  2     ecut=    50.00 Ry     beta= 0.70
     Davidson diagonalization with overlap
     c_bands:  1 eigenvalues not converged
     ethr =  1.88E-04,  avg # of iterations =  9.6

     total cpu time spent up to now is        9.7 secs

     total energy              =     -22.78946406 Ry
     estimated scf accuracy    <       0.01011984 Ry

     iteration #  3     ecut=    50.00 Ry     beta= 0.70
     Davidson diagonalization with overlap
     ethr =  1.26E-04,  avg # of iterations =  3.5

     total cpu time spent up to now is        9.9 secs

     total energy              =     -22.78768078 Ry
     estimated scf accuracy    <       0.00286534 Ry

     iteration #  4     ecut=    50.00 Ry     beta= 0.70
     Davidson diagonalization with overlap
     ethr =  3.58E-05,  avg # of iterations =  4.9

     total cpu time spent up to now is       10.0 secs

     total energy              =     -22.78693527 Ry
     estimated scf accuracy    <       0.00129681 Ry

     iteration #  5     ecut=    50.00 Ry     beta= 0.70
     Davidson diagonalization with overlap
     ethr =  1.62E-05,  avg # of iterations =  5.6

     total cpu time spent up to now is       10.1 secs

     total energy              =     -22.78618667 Ry
     estimated scf accuracy    <       0.00072138 Ry

     iteration #  6     ecut=    50.00 Ry     beta= 0.70
     Davidson diagonalization with overlap
     ethr =  9.02E-06,  avg # of iterations =  7.4

     total cpu time spent up to now is       10.3 secs

     total energy              =     -22.78620445 Ry
     estimated scf accuracy    <       0.00012640 Ry

     iteration #  7     ecut=    50.00 Ry     beta= 0.70
     Davidson diagonalization with overlap
     ethr =  1.58E-06,  avg # of iterations =  2.4

     total cpu time spent up to now is       10.4 secs

     total energy              =     -22.78608597 Ry
     estimated scf accuracy    <       0.00012550 Ry

     iteration #  8     ecut=    50.00 Ry     beta= 0.70
     Davidson diagonalization with overlap
     ethr =  1.57E-06,  avg # of iterations =  6.8

     negative rho (up, down):  7.375E-06 0.000E+00

     total cpu time spent up to now is       10.6 secs

     total energy              =     -22.78609562 Ry
     estimated scf accuracy    <       0.00000082 Ry

     iteration #  9     ecut=    50.00 Ry     beta= 0.70
     Davidson diagonalization with overlap
     ethr =  1.03E-08,  avg # of iterations =  5.7

     total cpu time spent up to now is       10.7 secs

     total energy              =     -22.78609571 Ry
     estimated scf accuracy    <          7.2E-09 Ry

     iteration # 10     ecut=    50.00 Ry     beta= 0.70
     Davidson diagonalization with overlap
     ethr =  8.95E-11,  avg # of iterations =  3.7

     total cpu time spent up to now is       10.9 secs

     total energy              =     -22.78609578 Ry
     estimated scf accuracy    <          5.9E-09 Ry

     iteration # 11     ecut=    50.00 Ry     beta= 0.70
     Davidson diagonalization with overlap
     ethr =  7.42E-11,  avg # of iterations =  1.6

     total cpu time spent up to now is       11.0 secs

     total energy              =     -22.78609578 Ry
     estimated scf accuracy    <          2.3E-09 Ry

     iteration # 12     ecut=    50.00 Ry     beta= 0.70
     Davidson diagonalization with overlap
     ethr =  2.82E-11,  avg # of iterations =  1.0

     total cpu time spent up to now is       11.1 secs

     total energy              =     -22.78609578 Ry
     estimated scf accuracy    <          8.9E-10 Ry

     iteration # 13     ecut=    50.00 Ry     beta= 0.70
     Davidson diagonalization with overlap
     ethr =  1.11E-11,  avg # of iterations =  1.0

     total cpu time spent up to now is       11.2 secs

     total energy              =     -22.78609578 Ry
     estimated scf accuracy    <          3.6E-10 Ry

     iteration # 14     ecut=    50.00 Ry     beta= 0.70
     Davidson diagonalization with overlap
     ethr =  4.50E-12,  avg # of iterations =  2.0

     total cpu time spent up to now is       11.3 secs

     End of self-consistent calculation

          k = 0.0000 0.0000 0.0000 (  4279 PWs)   bands (ev):

   -23.9441 -11.9860  -7.2188  -7.2188  -0.9868  -0.2061   0.5781   0.9342

          k =-0.0000 0.0756 0.0000 (  4235 PWs)   bands (ev):

   -23.8372 -11.8575  -7.6394  -7.4444  -0.8415  -0.0587   0.7265   1.0819

          k =-0.0000 0.1511 0.0000 (  4245 PWs)   bands (ev):

   -23.5175 -11.4741  -8.7872  -8.0267  -0.4055   0.3832   1.1716   1.5249

          k =-0.0000 0.2267 0.0000 (  4281 PWs)   bands (ev):

   -22.9876 -10.8427 -10.3621  -8.7538   0.3205   1.1172   1.9133   2.2610

          k =-0.0000 0.3023 0.0000 (  4281 PWs)   bands (ev):

   -22.2515 -12.1227  -9.9771  -9.4571   1.3345   2.1136   2.8296   2.9498

          k =-0.0000 0.3778 0.0000 (  4307 PWs)   bands (ev):

   -21.3171 -13.9164 -10.0435  -8.9138   0.8762   2.6286   3.4874   3.8158

          k =-0.0000 0.4534 0.0000 (  4305 PWs)   bands (ev):

   -20.1981 -15.6445 -10.4555  -7.7391  -0.9282   3.5893   4.2519   5.0847

          k =-0.0000 0.5289 0.0000 (  4292 PWs)   bands (ev):

   -18.9635 -17.1933 -10.6682  -6.7523  -2.2474   3.5036   6.0818   6.9528

          k = 0.0654 0.1133 0.0000 (  4231 PWs)   bands (ev):

   -23.6239 -11.6019  -8.3758  -7.9002  -0.5508   0.2359   1.0233   1.3773

          k = 0.0654 0.1889 0.0000 (  4239 PWs)   bands (ev):

   -23.1988 -11.0936  -9.6442  -8.6480   0.0306   0.8243   1.6169   1.9674

          k = 0.0654 0.2645 0.0000 (  4277 PWs)   bands (ev):

   -22.5663 -11.2524 -10.3440  -9.4268   0.9012   1.7013   2.5068   2.8440

          k = 0.0654 0.3400 0.0000 (  4297 PWs)   bands (ev):

   -21.7309 -12.9993 -10.1033  -9.3759   1.7429   2.0581   2.9038   3.6896

          k = 0.0654 0.4156 0.0000 (  4314 PWs)   bands (ev):

   -20.7031 -14.7465 -10.6175  -8.2399  -0.0994   3.4855   4.1966   4.3493

          k = 0.0654 0.4912 0.0000 (  4316 PWs)   bands (ev):

   -19.5098 -16.3945 -10.9380  -7.0909  -1.7154   4.0132   5.2358   6.0768

          k = 0.0654 0.5667 0.0000 (  4314 PWs)   bands (ev):

   -18.5067 -17.5533 -11.0458  -6.4822  -2.4848   3.9654   7.1204   7.2753

          k = 0.1309 0.2267 0.0000 (  4275 PWs)   bands (ev):

   -22.6715 -10.7572 -10.4673  -9.6384   0.7570   1.5578   2.3591   2.7035

          k = 0.1309 0.3023 0.0000 (  4301 PWs)   bands (ev):

   -21.9395 -12.1726 -10.5657  -9.6100   1.7715   2.3111   2.5957   3.3975

          k = 0.1309 0.3778 0.0000 (  4311 PWs)   bands (ev):

   -21.0106 -13.7915 -11.2510  -8.5531   0.5942   3.0696   3.8910   4.7293

          k = 0.1309 0.4534 0.0000 (  4301 PWs)   bands (ev):

   -19.9009 -15.4323 -11.7019  -7.3774  -1.0853   4.6355   5.3809   5.4593

          k = 0.1309 0.5289 0.0000 (  4323 PWs)   bands (ev):

   -18.6830 -16.9349 -11.9288  -6.3705  -2.3663   5.2527   6.4908   7.1873

          k = 0.1963 0.3400 0.0000 (  4325 PWs)   bands (ev):

   -21.1139 -13.1914 -11.7717  -8.6603   0.8798   2.9271   3.7310   4.5840

          k = 0.1963 0.4156 0.0000 (  4321 PWs)   bands (ev):

   -20.1012 -14.4970 -12.6049  -7.5370  -0.6422   4.3598   5.1284   6.0632

          k = 0.1963 0.4912 0.0000 (  4318 PWs)   bands (ev):

   -18.9335 -15.9554 -13.0343  -6.3691  -2.0730   6.0467   6.5936   7.0593

          k = 0.1963 0.5667 0.0000 (  4313 PWs)   bands (ev):

   -17.9635 -17.0386 -13.1671  -5.6998  -2.8348   6.9827   7.2561   7.8439

          k = 0.2618 0.4534 0.0000 (  4319 PWs)   bands (ev):

   -19.0250 -15.2752 -13.7658  -6.3831  -1.9212   5.9086   6.3548   7.6403

          k = 0.2618 0.5289 0.0000 (  4307 PWs)   bands (ev):

   -17.8587 -16.3487 -14.3149  -5.2722  -3.0870   6.7128   7.6434   8.7271

          k = 0.3272 0.5667 0.0000 (  4317 PWs)   bands (ev):

   -16.8815 -16.8815 -14.9721  -4.1584  -4.1584   6.5077   8.9210   9.4614

     the Fermi energy is    -4.1584 ev

!    total energy              =     -22.78609578 Ry
     estimated scf accuracy    <          1.7E-11 Ry
     smearing contrib. (-TS)   =      -0.00005015 Ry
     internal energy E=F+TS    =     -22.78604563 Ry

     The total energy is F=E-TS. E is the sum of the following terms:
     one-electron contribution =    -394.41686846 Ry
     hartree contribution      =     197.84667811 Ry
     xc contribution           =      -7.05148273 Ry
     ewald contribution        =     180.83562745 Ry

     convergence has been achieved in  14 iterations

     Forces acting on atoms (cartesian axes, Ry/au):

     atom    1 type  1   force =     0.00000000    0.00000000    0.00000000
     atom    2 type  1   force =    -0.00000000   -0.00000000    0.00000000

     Total force =     0.000000     Total SCF correction =     0.000000


     Computing stress (Cartesian axis) and pressure

          total   stress  (Ry/bohr**3)                   (kbar)     P=       -5.58
   0.00000189  -0.00000000  -0.00000000            0.28       -0.00       -0.00
  -0.00000000   0.00000189  -0.00000000           -0.00        0.28       -0.00
  -0.00000000  -0.00000000  -0.00011752           -0.00       -0.00      -17.29

     Energy error            =      1.2E-04
     Gradient error          =      1.7E-26
     Cell gradient error     =      1.9E-06


     number of scf cycles    =   4
     number of bfgs steps    =   3

     enthalpy old            =     -22.7859763787 Ry
     enthalpy new            =     -22.7860957783 Ry

     CASE: enthalpy_new < enthalpy_old

     new trust radius        =       0.0006955176 bohr
     new conv_thr            =            1.0E-10 Ry

     new unit-cell volume =    747.18664 a.u.^3 (   110.72164 Ang^3 )
     density =      0.36026 g/cm^3

CELL_PARAMETERS (alat=  4.53000000)
   1.018881130   0.000000000   0.000000000
  -0.509440565   0.882376942   0.000000000
   0.000000000   0.000000000   8.940397351

ATOMIC_POSITIONS (crystal)
C             0.3333333333        0.6666666667        0.5000000000
C             0.6666666667        0.3333333333        0.5000000000



     Writing output data file ./work/LiC453.save/
     NEW-OLD atomic charge density approx. for the potential
     extrapolated charge    8.00203, renormalised to    8.00000

     total cpu time spent up to now is       11.3 secs

     Self-consistent Calculation

     iteration #  1     ecut=    50.00 Ry     beta= 0.70
     Davidson diagonalization with overlap
     ethr =  1.00E-06,  avg # of iterations =  3.3

     Threshold (ethr) on eigenvalues was too large:
     Diagonalizing with lowered threshold

     Davidson diagonalization with overlap
     ethr =  1.47E-08,  avg # of iterations =  1.0

     total cpu time spent up to now is       11.5 secs

     total energy              =     -22.78609350 Ry
     estimated scf accuracy    <       0.00000126 Ry

     iteration #  2     ecut=    50.00 Ry     beta= 0.70
     Davidson diagonalization with overlap
     ethr =  1.58E-08,  avg # of iterations =  3.9

     total cpu time spent up to now is       11.7 secs

     total energy              =     -22.78609604 Ry
     estimated scf accuracy    <       0.00000117 Ry

     iteration #  3     ecut=    50.00 Ry     beta= 0.70
     Davidson diagonalization with overlap
     ethr =  1.46E-08,  avg # of iterations =  1.0

     total cpu time spent up to now is       11.8 secs

     total energy              =     -22.78609596 Ry
     estimated scf accuracy    <       0.00000027 Ry

     iteration #  4     ecut=    50.00 Ry     beta= 0.70
     Davidson diagonalization with overlap
     ethr =  3.39E-09,  avg # of iterations =  1.9

     total cpu time spent up to now is       11.9 secs

     total energy              =     -22.78609598 Ry
     estimated scf accuracy    <       0.00000004 Ry

     iteration #  5     ecut=    50.00 Ry     beta= 0.70
     Davidson diagonalization with overlap
     ethr =  5.41E-10,  avg # of iterations =  1.0

     total cpu time spent up to now is       12.0 secs

     total energy              =     -22.78609598 Ry
     estimated scf accuracy    <       0.00000004 Ry

     iteration #  6     ecut=    50.00 Ry     beta= 0.70
     Davidson diagonalization with overlap
     ethr =  5.41E-10,  avg # of iterations =  1.0

     total cpu time spent up to now is       12.1 secs

     total energy              =     -22.78609595 Ry
     estimated scf accuracy    <       0.00000003 Ry

     iteration #  7     ecut=    50.00 Ry     beta= 0.70
     Davidson diagonalization with overlap
     ethr =  4.17E-10,  avg # of iterations =  2.0

     total cpu time spent up to now is       12.2 secs

     total energy              =     -22.78609596 Ry
     estimated scf accuracy    <          2.8E-10 Ry

     iteration #  8     ecut=    50.00 Ry     beta= 0.70
     Davidson diagonalization with overlap
     ethr =  3.48E-12,  avg # of iterations =  2.3

     total cpu time spent up to now is       12.3 secs

     End of self-consistent calculation

          k = 0.0000 0.0000 0.0000 (  4279 PWs)   bands (ev):

   -23.9422 -11.9846  -7.2202  -7.2202  -0.9868  -0.2062   0.5781   0.9341

          k =-0.0000 0.0756 0.0000 (  4235 PWs)   bands (ev):

   -23.8354 -11.8562  -7.6406  -7.4457  -0.8415  -0.0588   0.7264   1.0819

          k =-0.0000 0.1511 0.0000 (  4245 PWs)   bands (ev):

   -23.5157 -11.4728  -8.7882  -8.0277  -0.4057   0.3830   1.1714   1.5248

          k =-0.0000 0.2267 0.0000 (  4281 PWs)   bands (ev):

   -22.9860 -10.8416 -10.3629  -8.7546   0.3202   1.1169   1.9129   2.2606

          k =-0.0000 0.3022 0.0000 (  4281 PWs)   bands (ev):

   -22.2501 -12.1232  -9.9763  -9.4576   1.3339   2.1129   2.8263   2.9492

          k =-0.0000 0.3778 0.0000 (  4307 PWs)   bands (ev):

   -21.3159 -13.9165 -10.0438  -8.9133   0.8734   2.6277   3.4864   3.8110

          k =-0.0000 0.4533 0.0000 (  4305 PWs)   bands (ev):

   -20.1972 -15.6442 -10.4557  -7.7391  -0.9303   3.5844   4.2504   5.0833

          k =-0.0000 0.5289 0.0000 (  4292 PWs)   bands (ev):

   -18.9630 -17.1925 -10.6684  -6.7527  -2.2489   3.4985   6.0801   6.9509

          k = 0.0654 0.1133 0.0000 (  4231 PWs)   bands (ev):

   -23.6222 -11.6006  -8.3770  -7.9013  -0.5509   0.2358   1.0231   1.3772

          k = 0.0654 0.1889 0.0000 (  4239 PWs)   bands (ev):

   -23.1972 -11.0925  -9.6452  -8.6488   0.0304   0.8240   1.6166   1.9671

          k = 0.0654 0.2644 0.0000 (  4277 PWs)   bands (ev):

   -22.5648 -11.2531 -10.3431  -9.4273   0.9008   1.7007   2.5063   2.8434

          k = 0.0654 0.3400 0.0000 (  4297 PWs)   bands (ev):

   -21.7295 -12.9997 -10.1036  -9.3753   1.7398   2.0574   2.9029   3.6888

          k = 0.0654 0.4155 0.0000 (  4314 PWs)   bands (ev):

   -20.7020 -14.7464 -10.6177  -8.2397  -0.1018   3.4843   4.1917   4.3481

          k = 0.0654 0.4911 0.0000 (  4316 PWs)   bands (ev):

   -19.5091 -16.3940 -10.9381  -7.0911  -1.7171   4.0082   5.2342   6.0751

          k = 0.0654 0.5667 0.0000 (  4314 PWs)   bands (ev):

   -18.5066 -17.5521 -11.0459  -6.4826  -2.4862   3.9603   7.1183   7.2732

          k = 0.1309 0.2267 0.0000 (  4275 PWs)   bands (ev):

   -22.6699 -10.7580 -10.4664  -9.6389   0.7566   1.5573   2.3586   2.7030

          k = 0.1309 0.3022 0.0000 (  4301 PWs)   bands (ev):

   -21.9382 -12.1732 -10.5659  -9.6093   1.7709   2.3078   2.5948   3.3968

          k = 0.1309 0.3778 0.0000 (  4311 PWs)   bands (ev):

   -21.0094 -13.7917 -11.2510  -8.5528   0.5915   3.0686   3.8898   4.7281

          k = 0.1309 0.4533 0.0000 (  4301 PWs)   bands (ev):

   -19.9001 -15.4322 -11.7019  -7.3775  -1.0874   4.6341   5.3757   5.4578

          k = 0.1309 0.5289 0.0000 (  4323 PWs)   bands (ev):

   -18.6826 -16.9341 -11.9287  -6.3710  -2.3678   5.2474   6.4889   7.1852

          k = 0.1963 0.3400 0.0000 (  4325 PWs)   bands (ev):

   -21.1127 -13.1920 -11.7714  -8.6599   0.8769   2.9261   3.7299   4.5829

          k = 0.1963 0.4155 0.0000 (  4321 PWs)   bands (ev):

   -20.1002 -14.4972 -12.6044  -7.5371  -0.6445   4.3584   5.1269   6.0618

          k = 0.1963 0.4911 0.0000 (  4318 PWs)   bands (ev):

   -18.9329 -15.9552 -13.0338  -6.3696  -2.0749   6.0449   6.5916   7.0538

          k = 0.1963 0.5667 0.0000 (  4313 PWs)   bands (ev):

   -17.9636 -17.0377 -13.1667  -5.7005  -2.8363   6.9771   7.2538   7.8415

          k = 0.2617 0.4533 0.0000 (  4319 PWs)   bands (ev):

   -19.0243 -15.2755 -13.7649  -6.3835  -1.9232   5.9069   6.3529   7.6383

          k = 0.2617 0.5289 0.0000 (  4307 PWs)   bands (ev):

   -17.8585 -16.3486 -14.3138  -5.2731  -3.0885   6.7108   7.6410   8.7215

          k = 0.3272 0.5667 0.0000 (  4317 PWs)   bands (ev):

   -16.8816 -16.8816 -14.9704  -4.1596  -4.1596   6.5059   8.9174   9.4585

     the Fermi energy is    -4.1596 ev

!    total energy              =     -22.78609596 Ry
     estimated scf accuracy    <          4.5E-11 Ry
     smearing contrib. (-TS)   =      -0.00005015 Ry
     internal energy E=F+TS    =     -22.78604581 Ry

     The total energy is F=E-TS. E is the sum of the following terms:
     one-electron contribution =    -394.31529524 Ry
     hartree contribution      =     197.79563821 Ry
     xc contribution           =      -7.05092973 Ry
     ewald contribution        =     180.78454095 Ry

     convergence has been achieved in   8 iterations

     Forces acting on atoms (cartesian axes, Ry/au):

     atom    1 type  1   force =     0.00000000    0.00000000    0.00000000
     atom    2 type  1   force =     0.00000000    0.00000000    0.00000000

     Total force =     0.000000     Total SCF correction =     0.000000


     Computing stress (Cartesian axis) and pressure

          total   stress  (Ry/bohr**3)                   (kbar)     P=       -5.76
   0.00000002   0.00000000   0.00000000            0.00        0.00        0.00
   0.00000000   0.00000002   0.00000000            0.00        0.00        0.00
   0.00000000   0.00000000  -0.00011751            0.00        0.00      -17.29

     Energy error            =      1.8E-07
     Gradient error          =      0.0E+00
     Cell gradient error     =      2.0E-08


     number of scf cycles    =   5
     number of bfgs steps    =   4

     enthalpy old            =     -22.7860957783 Ry
     enthalpy new            =     -22.7860959599 Ry

     CASE: enthalpy_new < enthalpy_old

     small trust_radius: resetting bfgs history

     new trust radius        =       0.0000027405 bohr
     new conv_thr            =            1.0E-10 Ry

     new unit-cell volume =    747.18739 a.u.^3 (   110.72175 Ang^3 )
     density =      0.36026 g/cm^3

CELL_PARAMETERS (alat=  4.53000000)
   1.018881640   0.000000000   0.000000000
  -0.509440820   0.882377384   0.000000000
   0.000000000   0.000000000   8.940397351

ATOMIC_POSITIONS (crystal)
C             0.3333333333        0.6666666667        0.5000000000
C             0.6666666667        0.3333333333        0.5000000000



     Writing output data file ./work/LiC453.save/
     NEW-OLD atomic charge density approx. for the potential
     extrapolated charge    8.00001, renormalised to    8.00000

     total cpu time spent up to now is       12.4 secs

     Self-consistent Calculation

     iteration #  1     ecut=    50.00 Ry     beta= 0.70
     Davidson diagonalization with overlap
     ethr =  1.00E-06,  avg # of iterations =  1.0

     Threshold (ethr) on eigenvalues was too large:
     Diagonalizing with lowered threshold

     Davidson diagonalization with overlap
     ethr =  7.60E-13,  avg # of iterations =  2.0

     total cpu time spent up to now is       12.5 secs

     End of self-consistent calculation

          k = 0.0000 0.0000 0.0000 (  4279 PWs)   bands (ev):

   -23.9414 -11.9838  -7.2193  -7.2193  -0.9863  -0.2059   0.5779   0.9341

          k =-0.0000 0.0756 0.0000 (  4235 PWs)   bands (ev):

   -23.8346 -11.8554  -7.6398  -7.4448  -0.8411  -0.0585   0.7263   1.0818

          k =-0.0000 0.1511 0.0000 (  4245 PWs)   bands (ev):

   -23.5149 -11.4721  -8.7874  -8.0269  -0.4052   0.3832   1.1713   1.5247

          k =-0.0000 0.2267 0.0000 (  4281 PWs)   bands (ev):

   -22.9851 -10.8409 -10.3621  -8.7537   0.3206   1.1171   1.9128   2.2605

          k =-0.0000 0.3022 0.0000 (  4281 PWs)   bands (ev):

   -22.2493 -12.1224  -9.9756  -9.4568   1.3344   2.1131   2.8269   2.9491

          k =-0.0000 0.3778 0.0000 (  4307 PWs)   bands (ev):

   -21.3151 -13.9157 -10.0430  -8.9126   0.8742   2.6281   3.4867   3.8118

          k =-0.0000 0.4533 0.0000 (  4305 PWs)   bands (ev):

   -20.1964 -15.6434 -10.4549  -7.7384  -0.9295   3.5852   4.2508   5.0835

          k =-0.0000 0.5289 0.0000 (  4292 PWs)   bands (ev):

   -18.9622 -17.1917 -10.6675  -6.7520  -2.2482   3.4993   6.0805   6.9512

          k = 0.0654 0.1133 0.0000 (  4231 PWs)   bands (ev):

   -23.6214 -11.5998  -8.3762  -7.9004  -0.5504   0.2360   1.0230   1.3771

          k = 0.0654 0.1889 0.0000 (  4239 PWs)   bands (ev):

   -23.1963 -11.0918  -9.6444  -8.6480   0.0308   0.8243   1.6164   1.9670

          k = 0.0654 0.2644 0.0000 (  4277 PWs)   bands (ev):

   -22.5640 -11.2523 -10.3423  -9.4265   0.9012   1.7010   2.5062   2.8433

          k = 0.0654 0.3400 0.0000 (  4297 PWs)   bands (ev):

   -21.7287 -12.9988 -10.1028  -9.3745   1.7406   2.0578   2.9031   3.6886

          k = 0.0654 0.4155 0.0000 (  4314 PWs)   bands (ev):

   -20.7012 -14.7456 -10.6169  -8.2390  -0.1010   3.4848   4.1924   4.3483

          k = 0.0654 0.4911 0.0000 (  4316 PWs)   bands (ev):

   -19.5083 -16.3932 -10.9373  -7.0903  -1.7164   4.0089   5.2347   6.0754

          k = 0.0654 0.5667 0.0000 (  4314 PWs)   bands (ev):

   -18.5058 -17.5512 -11.0450  -6.4819  -2.4855   3.9611   7.1188   7.2737

          k = 0.1309 0.2267 0.0000 (  4275 PWs)   bands (ev):

   -22.6691 -10.7572 -10.4656  -9.6380   0.7571   1.5576   2.3585   2.7029

          k = 0.1309 0.3022 0.0000 (  4301 PWs)   bands (ev):

   -21.9373 -12.1724 -10.5651  -9.6086   1.7713   2.3085   2.5951   3.3966

          k = 0.1309 0.3778 0.0000 (  4311 PWs)   bands (ev):

   -21.0086 -13.7909 -11.2502  -8.5520   0.5922   3.0691   3.8901   4.7280

          k = 0.1309 0.4533 0.0000 (  4301 PWs)   bands (ev):

   -19.8993 -15.4313 -11.7011  -7.3768  -1.0867   4.6345   5.3765   5.4581

          k = 0.1309 0.5289 0.0000 (  4323 PWs)   bands (ev):

   -18.6817 -16.9333 -11.9278  -6.3703  -2.3671   5.2482   6.4893   7.1856

          k = 0.1963 0.3400 0.0000 (  4325 PWs)   bands (ev):

   -21.1119 -13.1912 -11.7706  -8.6592   0.8776   2.9265   3.7301   4.5828

          k = 0.1963 0.4155 0.0000 (  4321 PWs)   bands (ev):

   -20.0994 -14.4964 -12.6036  -7.5363  -0.6438   4.3589   5.1272   6.0617

          k = 0.1963 0.4911 0.0000 (  4318 PWs)   bands (ev):

   -18.9321 -15.9544 -13.0330  -6.3688  -2.0741   6.0453   6.5921   7.0546

          k = 0.1963 0.5667 0.0000 (  4313 PWs)   bands (ev):

   -17.9627 -17.0369 -13.1658  -5.6998  -2.8356   6.9779   7.2544   7.8420

          k = 0.2617 0.4533 0.0000 (  4319 PWs)   bands (ev):

   -19.0235 -15.2746 -13.7641  -6.3828  -1.9224   5.9074   6.3534   7.6383

          k = 0.2617 0.5289 0.0000 (  4307 PWs)   bands (ev):

   -17.8576 -16.3478 -14.3130  -5.2723  -3.0877   6.7115   7.6415   8.7223

          k = 0.3272 0.5667 0.0000 (  4317 PWs)   bands (ev):

   -16.8808 -16.8808 -14.9696  -4.1588  -4.1588   6.5066   8.9180   9.4590

     the Fermi energy is    -4.1588 ev

!    total energy              =     -22.78609596 Ry
     estimated scf accuracy    <          6.6E-11 Ry
     smearing contrib. (-TS)   =      -0.00005015 Ry
     internal energy E=F+TS    =     -22.78604581 Ry

     The total energy is F=E-TS. E is the sum of the following terms:
     one-electron contribution =    -394.31480934 Ry
     hartree contribution      =     197.79534216 Ry
     xc contribution           =      -7.05091832 Ry
     ewald contribution        =     180.78433970 Ry

     convergence has been achieved in   1 iterations

     Forces acting on atoms (cartesian axes, Ry/au):

     atom    1 type  1   force =    -0.00000000   -0.00000000    0.00000000
     atom    2 type  1   force =     0.00000000    0.00000000    0.00000000

     Total force =     0.000000     Total SCF correction =     0.000000


     Computing stress (Cartesian axis) and pressure

          total   stress  (Ry/bohr**3)                   (kbar)     P=       -5.76
   0.00000002  -0.00000000  -0.00000000            0.00       -0.00       -0.00
   0.00000000   0.00000002  -0.00000000            0.00        0.00       -0.00
  -0.00000000  -0.00000000  -0.00011760           -0.00       -0.00      -17.30

     Energy error            =      8.1E-11
     Gradient error          =      1.7E-26
     Cell gradient error     =      2.2E-08


     number of scf cycles    =   6
     number of bfgs steps    =   5

     enthalpy old            =     -22.7860959599 Ry
     enthalpy new            =     -22.7860959598 Ry

     CASE: enthalpy_new > enthalpy_old

     new trust radius        =       0.0000002153 bohr

     trust_radius < trust_radius_min

     resetting bfgs history

     Message from routine bfgs:
     history already reset at previous step: stopping
     new conv_thr            =            1.0E-10 Ry

     new unit-cell volume =    747.18739 a.u.^3 (   110.72175 Ang^3 )
     density =      0.36026 g/cm^3

CELL_PARAMETERS (alat=  4.53000000)
   1.018881640   0.000000000   0.000000000
  -0.509440820   0.882377384   0.000000000
   0.000000000   0.000000000   8.940397351

ATOMIC_POSITIONS (crystal)
C             0.3333333333        0.6666666667        0.5000000000
C             0.6666666667        0.3333333333        0.5000000000



     Writing output data file ./work/LiC453.save/
     NEW-OLD atomic charge density approx. for the potential

     total cpu time spent up to now is       12.6 secs

     Self-consistent Calculation

     iteration #  1     ecut=    50.00 Ry     beta= 0.70
     Davidson diagonalization with overlap
     ethr =  1.00E-06,  avg # of iterations =  1.0

     Threshold (ethr) on eigenvalues was too large:
     Diagonalizing with lowered threshold

     Davidson diagonalization with overlap
     ethr =  7.54E-13,  avg # of iterations =  1.8

     total cpu time spent up to now is       12.8 secs

     End of self-consistent calculation

          k = 0.0000 0.0000 0.0000 (  4279 PWs)   bands (ev):

   -23.9423 -11.9846  -7.2202  -7.2202  -0.9868  -0.2062   0.5781   0.9341

          k =-0.0000 0.0756 0.0000 (  4235 PWs)   bands (ev):

   -23.8354 -11.8562  -7.6407  -7.4457  -0.8415  -0.0588   0.7264   1.0819

          k =-0.0000 0.1511 0.0000 (  4245 PWs)   bands (ev):

   -23.5157 -11.4729  -8.7883  -8.0278  -0.4057   0.3830   1.1714   1.5248

          k =-0.0000 0.2267 0.0000 (  4281 PWs)   bands (ev):

   -22.9860 -10.8416 -10.3629  -8.7546   0.3202   1.1169   1.9129   2.2606

          k =-0.0000 0.3022 0.0000 (  4281 PWs)   bands (ev):

   -22.2501 -12.1233  -9.9763  -9.4576   1.3339   2.1129   2.8263   2.9492

          k =-0.0000 0.3778 0.0000 (  4307 PWs)   bands (ev):

   -21.3159 -13.9165 -10.0439  -8.9134   0.8734   2.6277   3.4864   3.8110

          k =-0.0000 0.4533 0.0000 (  4305 PWs)   bands (ev):

   -20.1972 -15.6442 -10.4557  -7.7391  -0.9303   3.5844   4.2504   5.0833

          k =-0.0000 0.5289 0.0000 (  4292 PWs)   bands (ev):

   -18.9631 -17.1925 -10.6684  -6.7527  -2.2489   3.4985   6.0800   6.9509

          k = 0.0654 0.1133 0.0000 (  4231 PWs)   bands (ev):

   -23.6222 -11.6006  -8.3770  -7.9013  -0.5509   0.2358   1.0231   1.3772

          k = 0.0654 0.1889 0.0000 (  4239 PWs)   bands (ev):

   -23.1972 -11.0925  -9.6452  -8.6488   0.0304   0.8240   1.6166   1.9671

          k = 0.0654 0.2644 0.0000 (  4277 PWs)   bands (ev):

   -22.5648 -11.2531 -10.3431  -9.4274   0.9008   1.7007   2.5063   2.8434

          k = 0.0654 0.3400 0.0000 (  4297 PWs)   bands (ev):

   -21.7296 -12.9997 -10.1036  -9.3753   1.7398   2.0574   2.9028   3.6887

          k = 0.0654 0.4155 0.0000 (  4314 PWs)   bands (ev):

   -20.7020 -14.7464 -10.6177  -8.2397  -0.1018   3.4843   4.1916   4.3481

          k = 0.0654 0.4911 0.0000 (  4316 PWs)   bands (ev):

   -19.5091 -16.3940 -10.9381  -7.0911  -1.7172   4.0081   5.2342   6.0751

          k = 0.0654 0.5667 0.0000 (  4314 PWs)   bands (ev):

   -18.5067 -17.5521 -11.0459  -6.4827  -2.4863   3.9602   7.1183   7.2732

          k = 0.1309 0.2267 0.0000 (  4275 PWs)   bands (ev):

   -22.6700 -10.7581 -10.4664  -9.6389   0.7566   1.5573   2.3586   2.7030

          k = 0.1309 0.3022 0.0000 (  4301 PWs)   bands (ev):

   -21.9382 -12.1732 -10.5659  -9.6093   1.7709   2.3077   2.5948   3.3968

          k = 0.1309 0.3778 0.0000 (  4311 PWs)   bands (ev):

   -21.0094 -13.7917 -11.2510  -8.5528   0.5914   3.0686   3.8898   4.7281

          k = 0.1309 0.4533 0.0000 (  4301 PWs)   bands (ev):

   -19.9001 -15.4322 -11.7019  -7.3775  -1.0875   4.6340   5.3757   5.4577

          k = 0.1309 0.5289 0.0000 (  4323 PWs)   bands (ev):

   -18.6826 -16.9342 -11.9287  -6.3711  -2.3679   5.2474   6.4888   7.1852

          k = 0.1963 0.3400 0.0000 (  4325 PWs)   bands (ev):

   -21.1128 -13.1920 -11.7714  -8.6600   0.8768   2.9261   3.7299   4.5829

          k = 0.1963 0.4155 0.0000 (  4321 PWs)   bands (ev):

   -20.1003 -14.4972 -12.6045  -7.5371  -0.6446   4.3584   5.1269   6.0618

          k = 0.1963 0.4911 0.0000 (  4318 PWs)   bands (ev):

   -18.9329 -15.9552 -13.0339  -6.3696  -2.0749   6.0449   6.5916   7.0538

          k = 0.1963 0.5667 0.0000 (  4313 PWs)   bands (ev):

   -17.9636 -17.0377 -13.1667  -5.7006  -2.8364   6.9770   7.2538   7.8414

          k = 0.2617 0.4533 0.0000 (  4319 PWs)   bands (ev):

   -19.0244 -15.2755 -13.7649  -6.3835  -1.9232   5.9069   6.3529   7.6383

          k = 0.2617 0.5289 0.0000 (  4307 PWs)   bands (ev):

   -17.8585 -16.3486 -14.3139  -5.2731  -3.0885   6.7108   7.6410   8.7215

          k = 0.3272 0.5667 0.0000 (  4317 PWs)   bands (ev):

   -16.8816 -16.8816 -14.9704  -4.1596  -4.1596   6.5059   8.9173   9.4585

     the Fermi energy is    -4.1596 ev

!    total energy              =     -22.78609596 Ry
     estimated scf accuracy    <          6.4E-11 Ry
     smearing contrib. (-TS)   =      -0.00005015 Ry
     internal energy E=F+TS    =     -22.78604581 Ry

     The total energy is F=E-TS. E is the sum of the following terms:
     one-electron contribution =    -394.31489893 Ry
     hartree contribution      =     197.79544111 Ry
     xc contribution           =      -7.05092768 Ry
     ewald contribution        =     180.78433970 Ry

     convergence has been achieved in   1 iterations

     Forces acting on atoms (cartesian axes, Ry/au):

     atom    1 type  1   force =     0.00000000    0.00000000    0.00000000
     atom    2 type  1   force =     0.00000000    0.00000000    0.00000000

     Total force =     0.000000     Total SCF correction =     0.000000


     Computing stress (Cartesian axis) and pressure

          total   stress  (Ry/bohr**3)                   (kbar)     P=       -5.76
   0.00000001   0.00000000  -0.00000000            0.00        0.00       -0.00
   0.00000000   0.00000001   0.00000000            0.00        0.00        0.00
   0.00000000   0.00000000  -0.00011750            0.00        0.00      -17.29

     Message from routine bfgs:
     history already reset at previous step: stopping
     Energy error            =      1.5E-11
     Gradient error          =      0.0E+00
     Cell gradient error     =      1.0E-08


     bfgs converged in   7 scf cycles and   5 bfgs steps
     (criteria: energy <  1.0E-04 Ry, force <  1.0E-08Ry/Bohr, cell <  1.0E-03kbar)

     End of BFGS Geometry Optimization

     Final enthalpy =     -22.7860959599 Ry

     File ./work/LiC453.bfgs deleted, as requested
Begin final coordinates
     new unit-cell volume =    747.18739 a.u.^3 (   110.72175 Ang^3 )
     density =      0.36026 g/cm^3

CELL_PARAMETERS (alat=  4.53000000)
   1.018881640   0.000000000   0.000000000
  -0.509440820   0.882377384   0.000000000
   0.000000000   0.000000000   8.940397351

ATOMIC_POSITIONS (crystal)
C             0.3333333333        0.6666666667        0.5000000000
C             0.6666666667        0.3333333333        0.5000000000
End final coordinates



     Writing output data file ./work/LiC453.save/

     Final scf calculation at the relaxed structure.
     The G-vectors are recalculated for the final unit cell
     Results may differ from those at the preceding step.
 
     Parallelization info
     --------------------
     sticks:   dense  smooth     PW     G-vecs:    dense   smooth      PW
     Min           9       9      2                 1109     1109     170
     Max          10      10      3                 1138     1138     215
     Sum         295     295     91                35745    35745    6385
 


     bravais-lattice index     =            4
     lattice parameter (alat)  =       4.5300  a.u.
     unit-cell volume          =     747.1874 (a.u.)^3
     number of atoms/cell      =            2
     number of atomic types    =            1
     number of electrons       =         8.00
     number of Kohn-Sham states=            8
     kinetic-energy cutoff     =      50.0000  Ry
     charge density cutoff     =     200.0000  Ry
     scf convergence threshold =      1.0E-10
     mixing beta               =       0.7000
     number of iterations used =            8  plain     mixing
     press convergence thresh. =      1.0E-03
     Exchange-correlation= PBE
                           (   1   4   3   4   0   0   0)

     celldm(1)=   4.530000  celldm(2)=   0.000000  celldm(3)=   8.940397
     celldm(4)=   0.000000  celldm(5)=   0.000000  celldm(6)=   0.000000

     crystal axes: (cart. coord. in units of alat)
               a(1) = (   1.018882   0.000000   0.000000 )  
               a(2) = (  -0.509441   0.882377   0.000000 )  
               a(3) = (   0.000000   0.000000   8.940397 )  

     reciprocal axes: (cart. coord. in units 2 pi/alat)
               b(1) = (  0.981468  0.566651  0.000000 )  
               b(2) = ( -0.000000  1.133302  0.000000 )  
               b(3) = (  0.000000  0.000000  0.111852 )  


     PseudoPot. # 1 for C  read from file:
     /home/yhkim/qe-6.7/pseudo/ONCV1/1.2/C_ONCV_PBE-1.2.upf
     MD5 check sum: 1a5f83a7b1f58d24996abe00ed223ac6
     Pseudo is Norm-conserving, Zval =  4.0
     Generated using ONCVPSP code by D. R. Hamann
     Using radial grid of  602 points,  4 beta functions with: 
                l(1) =   0
                l(2) =   0
                l(3) =   1
                l(4) =   1

     atomic species   valence    mass     pseudopotential
        C              4.00    12.01070     C ( 1.00)

     24 Sym. Ops., with inversion, found



   Cartesian axes

     site n.     atom                  positions (alat units)
         1           C   tau(   1) = (  -0.0000000   0.5882516   4.4701987  )
         2           C   tau(   2) = (   0.5094408   0.2941258   4.4701987  )

     number of k points=    27  Methfessel-Paxton smearing, width (Ry)=  0.0100
                       cart. coord. in units 2pi/alat
        k(    1) = (   0.0000000   0.0000000   0.0000000), wk =   0.0088889
        k(    2) = (  -0.0000000   0.0755535   0.0000000), wk =   0.0533333
        k(    3) = (  -0.0000000   0.1511069   0.0000000), wk =   0.0533333
        k(    4) = (  -0.0000000   0.2266604   0.0000000), wk =   0.0533333
        k(    5) = (  -0.0000000   0.3022139   0.0000000), wk =   0.0533333
        k(    6) = (  -0.0000000   0.3777673   0.0000000), wk =   0.0533333
        k(    7) = (  -0.0000000   0.4533208   0.0000000), wk =   0.0533333
        k(    8) = (  -0.0000000   0.5288742   0.0000000), wk =   0.0533333
        k(    9) = (   0.0654312   0.1133302   0.0000000), wk =   0.0533333
        k(   10) = (   0.0654312   0.1888837   0.0000000), wk =   0.1066667
        k(   11) = (   0.0654312   0.2644371   0.0000000), wk =   0.1066667
        k(   12) = (   0.0654312   0.3399906   0.0000000), wk =   0.1066667
        k(   13) = (   0.0654312   0.4155440   0.0000000), wk =   0.1066667
        k(   14) = (   0.0654312   0.4910975   0.0000000), wk =   0.1066667
        k(   15) = (   0.0654312   0.5666510   0.0000000), wk =   0.0533333
        k(   16) = (   0.1308624   0.2266604   0.0000000), wk =   0.0533333
        k(   17) = (   0.1308624   0.3022139   0.0000000), wk =   0.1066667
        k(   18) = (   0.1308624   0.3777673   0.0000000), wk =   0.1066667
        k(   19) = (   0.1308624   0.4533208   0.0000000), wk =   0.1066667
        k(   20) = (   0.1308624   0.5288742   0.0000000), wk =   0.1066667
        k(   21) = (   0.1962937   0.3399906   0.0000000), wk =   0.0533333
        k(   22) = (   0.1962937   0.4155440   0.0000000), wk =   0.1066667
        k(   23) = (   0.1962937   0.4910975   0.0000000), wk =   0.1066667
        k(   24) = (   0.1962937   0.5666510   0.0000000), wk =   0.0533333
        k(   25) = (   0.2617249   0.4533208   0.0000000), wk =   0.0533333
        k(   26) = (   0.2617249   0.5288742   0.0000000), wk =   0.1066667
        k(   27) = (   0.3271561   0.5666510   0.0000000), wk =   0.0177778

     Dense  grid:    35745 G-vectors     FFT dimensions: (  24,  24, 192)

     Estimated max dynamical RAM per process >       1.95 MB

     Estimated total dynamical RAM >      62.31 MB
 ----2D----2D----2D----2D----2D----2D----2D----2D----2D----2D----2D----2D
  The code is running with the 2D cutoff
  Please refer to:
  Sohier, T., Calandra, M., & Mauri, F. (2017), 
  Density functional perturbation theory for gated two-dimensional heterostructu
 res:
  Theoretical developments and application to flexural phonons in graphene.
  Physical Review B, 96(7), 75448. https://doi.org/10.1103/PhysRevB.96.075448
 ----2D----2D----2D----2D----2D----2D----2D----2D----2D----2D----2D----2D

     Initial potential from superposition of free atoms

     starting charge    7.98607, renormalised to    8.00000

     negative rho (up, down):  1.126E-04 0.000E+00
     Starting wfcs are random

     total cpu time spent up to now is       12.9 secs

     Self-consistent Calculation

     iteration #  1     ecut=    50.00 Ry     beta= 0.70
     Davidson diagonalization with overlap
     c_bands:  1 eigenvalues not converged
     c_bands:  3 eigenvalues not converged
     c_bands:  3 eigenvalues not converged
     c_bands:  4 eigenvalues not converged
     c_bands:  4 eigenvalues not converged
     c_bands:  4 eigenvalues not converged
     c_bands:  2 eigenvalues not converged
     c_bands:  3 eigenvalues not converged
     c_bands:  4 eigenvalues not converged
     c_bands:  5 eigenvalues not converged
     c_bands:  4 eigenvalues not converged
     c_bands:  4 eigenvalues not converged
     c_bands:  4 eigenvalues not converged
     c_bands:  2 eigenvalues not converged
     c_bands:  3 eigenvalues not converged
     c_bands:  4 eigenvalues not converged
     c_bands:  4 eigenvalues not converged
     c_bands:  4 eigenvalues not converged
     c_bands:  3 eigenvalues not converged
     c_bands:  3 eigenvalues not converged
     c_bands:  4 eigenvalues not converged
     c_bands:  3 eigenvalues not converged
     c_bands:  3 eigenvalues not converged
     c_bands:  3 eigenvalues not converged
     c_bands:  4 eigenvalues not converged
     c_bands:  3 eigenvalues not converged
     c_bands:  2 eigenvalues not converged
     ethr =  1.00E-06,  avg # of iterations = 22.2

     negative rho (up, down):  2.242E-05 0.000E+00

     total cpu time spent up to now is       13.7 secs

     total energy              =     -22.75830355 Ry
     estimated scf accuracy    <       0.20627381 Ry

     iteration #  2     ecut=    50.00 Ry     beta= 0.70
     Davidson diagonalization with overlap
     ethr =  2.58E-03,  avg # of iterations =  2.4

     negative rho (up, down):  2.720E-06 0.000E+00

     total cpu time spent up to now is       13.8 secs

     total energy              =     -22.78949503 Ry
     estimated scf accuracy    <       0.00236744 Ry

     iteration #  3     ecut=    50.00 Ry     beta= 0.70
     Davidson diagonalization with overlap
     ethr =  2.96E-05,  avg # of iterations =  8.9

     total cpu time spent up to now is       14.0 secs

     total energy              =     -22.78991393 Ry
     estimated scf accuracy    <       0.00017453 Ry

     iteration #  4     ecut=    50.00 Ry     beta= 0.70
     Davidson diagonalization with overlap
     ethr =  2.18E-06,  avg # of iterations =  5.1

     total cpu time spent up to now is       14.2 secs

     total energy              =     -22.78992749 Ry
     estimated scf accuracy    <       0.00000125 Ry

     iteration #  5     ecut=    50.00 Ry     beta= 0.70
     Davidson diagonalization with overlap
     ethr =  1.56E-08,  avg # of iterations =  3.8

     total cpu time spent up to now is       14.3 secs

     total energy              =     -22.78992896 Ry
     estimated scf accuracy    <       0.00000004 Ry

     iteration #  6     ecut=    50.00 Ry     beta= 0.70
     Davidson diagonalization with overlap
     ethr =  4.74E-10,  avg # of iterations =  2.5

     total cpu time spent up to now is       14.4 secs

     total energy              =     -22.78992897 Ry
     estimated scf accuracy    <          1.0E-09 Ry

     iteration #  7     ecut=    50.00 Ry     beta= 0.70
     Davidson diagonalization with overlap
     ethr =  1.26E-11,  avg # of iterations =  2.9

     total cpu time spent up to now is       14.5 secs

     End of self-consistent calculation

          k = 0.0000 0.0000 0.0000 (  4435 PWs)   bands (ev):

   -23.9369 -11.9834  -7.2333  -7.2333  -0.9856  -0.2039   0.5829   0.9381

          k =-0.0000 0.0756 0.0000 (  4429 PWs)   bands (ev):

   -23.8301 -11.8549  -7.6610  -7.4603  -0.8403  -0.0565   0.7312   1.0859

          k =-0.0000 0.1511 0.0000 (  4439 PWs)   bands (ev):

   -23.5109 -11.4716  -8.7979  -8.0392  -0.4046   0.3852   1.1762   1.5287

          k =-0.0000 0.2267 0.0000 (  4443 PWs)   bands (ev):

   -22.9816 -10.8399 -10.3635  -8.7624   0.3211   1.1191   1.9177   2.2647

          k =-0.0000 0.3022 0.0000 (  4459 PWs)   bands (ev):

   -22.2459 -12.1229  -9.9748  -9.4684   1.3348   2.1147   2.8218   2.9540

          k =-0.0000 0.3778 0.0000 (  4481 PWs)   bands (ev):

   -21.3117 -13.9153 -10.0535  -8.9122   0.8727   2.6283   3.4885   3.8127

          k =-0.0000 0.4533 0.0000 (  4485 PWs)   bands (ev):

   -20.1933 -15.6422 -10.4670  -7.7372  -0.9300   3.5868   4.2515   5.0853

          k =-0.0000 0.5289 0.0000 (  4487 PWs)   bands (ev):

   -18.9593 -17.1908 -10.6785  -6.7521  -2.2498   3.5015   6.0805   6.9523

          k = 0.0654 0.1133 0.0000 (  4431 PWs)   bands (ev):

   -23.6171 -11.5983  -8.3891  -7.9181  -0.5498   0.2382   1.0279   1.3812

          k = 0.0654 0.1889 0.0000 (  4447 PWs)   bands (ev):

   -23.1930 -11.0910  -9.6497  -8.6628   0.0313   0.8263   1.6213   1.9711

          k = 0.0654 0.2644 0.0000 (  4454 PWs)   bands (ev):

   -22.5606 -11.2539 -10.3417  -9.4368   0.9017   1.7029   2.5112   2.8474

          k = 0.0654 0.3400 0.0000 (  4468 PWs)   bands (ev):

   -21.7257 -12.9989 -10.1125  -9.3732   1.7386   2.0581   2.9050   3.6934

          k = 0.0654 0.4155 0.0000 (  4478 PWs)   bands (ev):

   -20.6983 -14.7447 -10.6259  -8.2381  -0.1010   3.4846   4.1928   4.3501

          k = 0.0654 0.4911 0.0000 (  4494 PWs)   bands (ev):

   -19.5056 -16.3924 -10.9454  -7.0911  -1.7171   4.0095   5.2349   6.0767

          k = 0.0654 0.5667 0.0000 (  4450 PWs)   bands (ev):

   -18.5017 -17.5503 -11.0519  -6.4819  -2.4845   3.9629   7.1189   7.2735

          k = 0.1309 0.2267 0.0000 (  4441 PWs)   bands (ev):

   -22.6658 -10.7595 -10.4645  -9.6478   0.7575   1.5596   2.3634   2.7071

          k = 0.1309 0.3022 0.0000 (  4442 PWs)   bands (ev):

   -21.9338 -12.1721 -10.5715  -9.6079   1.7717   2.3067   2.5967   3.4016

          k = 0.1309 0.3778 0.0000 (  4471 PWs)   bands (ev):

   -21.0054 -13.7903 -11.2573  -8.5518   0.5899   3.0693   3.8918   4.7327

          k = 0.1309 0.4533 0.0000 (  4483 PWs)   bands (ev):

   -19.8965 -15.4308 -11.7087  -7.3775  -1.0900   4.6343   5.3740   5.4593

          k = 0.1309 0.5289 0.0000 (  4477 PWs)   bands (ev):

   -18.6785 -16.9323 -11.9345  -6.3695  -2.3680   5.2467   6.4893   7.1862

          k = 0.1963 0.3400 0.0000 (  4447 PWs)   bands (ev):

   -21.1082 -13.1904 -11.7726  -8.6580   0.8752   2.9269   3.7319   4.5878

          k = 0.1963 0.4155 0.0000 (  4454 PWs)   bands (ev):

   -20.0962 -14.4952 -12.6052  -7.5365  -0.6441   4.3590   5.1285   6.0666

          k = 0.1963 0.4911 0.0000 (  4464 PWs)   bands (ev):

   -18.9292 -15.9531 -13.0335  -6.3695  -2.0752   6.0450   6.5925   7.0525

          k = 0.1963 0.5667 0.0000 (  4449 PWs)   bands (ev):

   -17.9589 -17.0358 -13.1673  -5.7002  -2.8360   6.9749   7.2546   7.8427

          k = 0.2617 0.4533 0.0000 (  4455 PWs)   bands (ev):

   -19.0206 -15.2731 -13.7650  -6.3825  -1.9231   5.9071   6.3539   7.6438

          k = 0.2617 0.5289 0.0000 (  4454 PWs)   bands (ev):

   -17.8546 -16.3465 -14.3140  -5.2726  -3.0895   6.7119   7.6406   8.7175

          k = 0.3272 0.5667 0.0000 (  4425 PWs)   bands (ev):

   -16.8771 -16.8771 -14.9707  -4.1594  -4.1594   6.5072   8.9160   8.9161

     the Fermi energy is    -4.1594 ev

!    total energy              =     -22.78992897 Ry
     estimated scf accuracy    <          1.3E-11 Ry
     smearing contrib. (-TS)   =      -0.00005015 Ry
     internal energy E=F+TS    =     -22.78987882 Ry

     The total energy is F=E-TS. E is the sum of the following terms:
     one-electron contribution =    -394.32211586 Ry
     hartree contribution      =     197.79902076 Ry
     xc contribution           =      -7.05112343 Ry
     ewald contribution        =     180.78433971 Ry

     convergence has been achieved in   7 iterations

     Forces acting on atoms (cartesian axes, Ry/au):

     atom    1 type  1   force =     0.00000000    0.00000000    0.00000000
     atom    2 type  1   force =    -0.00000000   -0.00000000    0.00000000

     Total force =     0.000000     Total SCF correction =     0.000000


     Computing stress (Cartesian axis) and pressure

          total   stress  (Ry/bohr**3)                   (kbar)     P=       -3.46
   0.00001991   0.00000000   0.00000000            2.93        0.00        0.00
   0.00000000   0.00001991  -0.00000000            0.00        2.93       -0.00
   0.00000000   0.00000000  -0.00011041            0.00        0.00      -16.24


     Writing output data file ./work/LiC453.save/
 
     init_run     :      0.12s CPU      0.15s WALL (       2 calls)
     electrons    :     12.71s CPU     13.96s WALL (       8 calls)
     update_pot   :      0.07s CPU      0.08s WALL (       6 calls)
     forces       :      0.06s CPU      0.07s WALL (       8 calls)
     stress       :      0.18s CPU      0.19s WALL (       8 calls)

     Called by init_run:
     wfcinit      :      0.09s CPU      0.11s WALL (       2 calls)
     potinit      :      0.01s CPU      0.01s WALL (       2 calls)
     hinit0       :      0.01s CPU      0.01s WALL (       2 calls)

     Called by electrons:
     c_bands      :     11.08s CPU     12.00s WALL (      91 calls)
     sum_band     :      1.42s CPU      1.55s WALL (      91 calls)
     v_of_rho     :      0.16s CPU      0.19s WALL (      96 calls)
     mix_rho      :      0.03s CPU      0.04s WALL (      91 calls)

     Called by c_bands:
     init_us_2    :      0.09s CPU      0.09s WALL (    5400 calls)
     cegterg      :     10.82s CPU     11.70s WALL (    2460 calls)

     Called by *egterg:
     cdiaghg      :      1.19s CPU      1.28s WALL (   13560 calls)
     h_psi        :      8.79s CPU      9.52s WALL (   13860 calls)
     g_psi        :      0.03s CPU      0.03s WALL (   11346 calls)

     Called by h_psi:
     h_psi:calbec :      0.34s CPU      0.37s WALL (   13860 calls)
     vloc_psi     :      8.23s CPU      8.92s WALL (   13860 calls)
     add_vuspsi   :      0.10s CPU      0.11s WALL (   13860 calls)

     General routines
     calbec       :      0.37s CPU      0.40s WALL (   14940 calls)
     fft          :      0.15s CPU      0.16s WALL (    1025 calls)
     ffts         :      0.01s CPU      0.01s WALL (      91 calls)
     fftw         :      8.92s CPU      9.66s WALL (  151456 calls)
 
     Parallel routines
     fft_scatt_xy :      0.65s CPU      0.71s WALL (  152572 calls)
     fft_scatt_yz :      4.59s CPU      4.97s WALL (  152572 calls)
 
     PWSCF        :     13.22s CPU     14.84s WALL

 
   This run was terminated on:  13:41:29  19Jan2024            

=------------------------------------------------------------------------------=
   JOB DONE.
=------------------------------------------------------------------------------=
