
     Program PWSCF v.6.7MaX starts on 19Jan2024 at 14:14: 4 

     This program is part of the open-source Quantum ESPRESSO suite
     for quantum simulation of materials; please cite
         "P. Giannozzi et al., J. Phys.:Condens. Matter 21 395502 (2009);
         "P. Giannozzi et al., J. Phys.:Condens. Matter 29 465901 (2017);
          URL http://www.quantum-espresso.org", 
     in publications or presentations arising from this work. More details at
     http://www.quantum-espresso.org/quote

     Parallel version (MPI), running on    32 processors

     MPI processes distributed on     1 nodes
     R & G space division:  proc/nbgrp/npool/nimage =      32
     Waiting for input...
     Reading input from standard input

     Current dimensions of program PWSCF are:
     Max number of different atomic species (ntypx) = 10
     Max number of k-points (npk) =  40000
     Max angular momentum in pseudopotentials (lmaxx) =  3
     Message from routine read_pp_mesh:
     mesh size missing, using the one in header

     Subspace diagonalization in iterative solution of the eigenvalue problem:
     a serial algorithm will be used

 
     Parallelization info
     --------------------
     sticks:   dense  smooth     PW     G-vecs:    dense   smooth      PW
     Min           9       9      2                 1131     1131     170
     Max          10      10      3                 1168     1168     217
     Sum         301     301     91                36639    36639    6481
 


     bravais-lattice index     =            4
     lattice parameter (alat)  =       4.6700  a.u.
     unit-cell volume          =     764.9260 (a.u.)^3
     number of atoms/cell      =            2
     number of atomic types    =            1
     number of electrons       =         8.00
     number of Kohn-Sham states=            8
     kinetic-energy cutoff     =      50.0000  Ry
     charge density cutoff     =     200.0000  Ry
     scf convergence threshold =      1.0E-08
     mixing beta               =       0.7000
     number of iterations used =            8  plain     mixing
     energy convergence thresh.=      1.0E-04
     force convergence thresh. =      1.0E-08
     press convergence thresh. =      1.0E-03
     Exchange-correlation= PBE
                           (   1   4   3   4   0   0   0)
     nstep                     =           50


     celldm(1)=   4.670000  celldm(2)=   0.000000  celldm(3)=   8.672377
     celldm(4)=   0.000000  celldm(5)=   0.000000  celldm(6)=   0.000000

     crystal axes: (cart. coord. in units of alat)
               a(1) = (   1.000000   0.000000   0.000000 )  
               a(2) = (  -0.500000   0.866025   0.000000 )  
               a(3) = (   0.000000   0.000000   8.672377 )  

     reciprocal axes: (cart. coord. in units 2 pi/alat)
               b(1) = (  1.000000  0.577350  0.000000 )  
               b(2) = (  0.000000  1.154701  0.000000 )  
               b(3) = (  0.000000  0.000000  0.115309 )  


     PseudoPot. # 1 for C  read from file:
     /home/yhkim/qe-6.7/pseudo/ONCV1/1.2/C_ONCV_PBE-1.2.upf
     MD5 check sum: 1a5f83a7b1f58d24996abe00ed223ac6
     Pseudo is Norm-conserving, Zval =  4.0
     Generated using ONCVPSP code by D. R. Hamann
     Using radial grid of  602 points,  4 beta functions with: 
                l(1) =   0
                l(2) =   0
                l(3) =   1
                l(4) =   1

     atomic species   valence    mass     pseudopotential
        C              4.00    12.01070     C ( 1.00)

     24 Sym. Ops., with inversion, found



   Cartesian axes

     site n.     atom                  positions (alat units)
         1           C   tau(   1) = (  -0.0000000   0.5773503   4.3361884  )
         2           C   tau(   2) = (   0.5000000   0.2886751   4.3361884  )

     number of k points=    27  Methfessel-Paxton smearing, width (Ry)=  0.0100
                       cart. coord. in units 2pi/alat
        k(    1) = (   0.0000000   0.0000000   0.0000000), wk =   0.0088889
        k(    2) = (   0.0000000   0.0769800   0.0000000), wk =   0.0533333
        k(    3) = (   0.0000000   0.1539601   0.0000000), wk =   0.0533333
        k(    4) = (   0.0000000   0.2309401   0.0000000), wk =   0.0533333
        k(    5) = (   0.0000000   0.3079201   0.0000000), wk =   0.0533333
        k(    6) = (   0.0000000   0.3849002   0.0000000), wk =   0.0533333
        k(    7) = (   0.0000000   0.4618802   0.0000000), wk =   0.0533333
        k(    8) = (   0.0000000   0.5388603   0.0000000), wk =   0.0533333
        k(    9) = (   0.0666667   0.1154701   0.0000000), wk =   0.0533333
        k(   10) = (   0.0666667   0.1924501   0.0000000), wk =   0.1066667
        k(   11) = (   0.0666667   0.2694301   0.0000000), wk =   0.1066667
        k(   12) = (   0.0666667   0.3464102   0.0000000), wk =   0.1066667
        k(   13) = (   0.0666667   0.4233902   0.0000000), wk =   0.1066667
        k(   14) = (   0.0666667   0.5003702   0.0000000), wk =   0.1066667
        k(   15) = (   0.0666667   0.5773503   0.0000000), wk =   0.0533333
        k(   16) = (   0.1333333   0.2309401   0.0000000), wk =   0.0533333
        k(   17) = (   0.1333333   0.3079201   0.0000000), wk =   0.1066667
        k(   18) = (   0.1333333   0.3849002   0.0000000), wk =   0.1066667
        k(   19) = (   0.1333333   0.4618802   0.0000000), wk =   0.1066667
        k(   20) = (   0.1333333   0.5388603   0.0000000), wk =   0.1066667
        k(   21) = (   0.2000000   0.3464102   0.0000000), wk =   0.0533333
        k(   22) = (   0.2000000   0.4233902   0.0000000), wk =   0.1066667
        k(   23) = (   0.2000000   0.5003702   0.0000000), wk =   0.1066667
        k(   24) = (   0.2000000   0.5773503   0.0000000), wk =   0.0533333
        k(   25) = (   0.2666667   0.4618802   0.0000000), wk =   0.0533333
        k(   26) = (   0.2666667   0.5388603   0.0000000), wk =   0.1066667
        k(   27) = (   0.3333333   0.5773503   0.0000000), wk =   0.0177778

     Dense  grid:    36639 G-vectors     FFT dimensions: (  24,  24, 192)

     Estimated max dynamical RAM per process >       1.96 MB

     Estimated total dynamical RAM >      62.76 MB
 ----2D----2D----2D----2D----2D----2D----2D----2D----2D----2D----2D----2D
  The code is running with the 2D cutoff
  Please refer to:
  Sohier, T., Calandra, M., & Mauri, F. (2017), 
  Density functional perturbation theory for gated two-dimensional heterostructu
 res:
  Theoretical developments and application to flexural phonons in graphene.
  Physical Review B, 96(7), 75448. https://doi.org/10.1103/PhysRevB.96.075448
 ----2D----2D----2D----2D----2D----2D----2D----2D----2D----2D----2D----2D

     Initial potential from superposition of free atoms

     starting charge    7.98607, renormalised to    8.00000

     negative rho (up, down):  1.142E-04 0.000E+00
     Starting wfcs are random

     total cpu time spent up to now is        0.1 secs

     Self-consistent Calculation

     iteration #  1     ecut=    50.00 Ry     beta= 0.70
     Davidson diagonalization with overlap
     ethr =  1.00E-02,  avg # of iterations = 11.3

     negative rho (up, down):  6.159E-08 0.000E+00

     total cpu time spent up to now is        0.5 secs

     total energy              =     -22.76211922 Ry
     estimated scf accuracy    <       0.16101653 Ry

     iteration #  2     ecut=    50.00 Ry     beta= 0.70
     Davidson diagonalization with overlap
     ethr =  2.01E-03,  avg # of iterations =  2.1

     total cpu time spent up to now is        0.6 secs

     total energy              =     -22.78766551 Ry
     estimated scf accuracy    <       0.00218117 Ry

     iteration #  3     ecut=    50.00 Ry     beta= 0.70
     Davidson diagonalization with overlap
     ethr =  2.73E-05,  avg # of iterations =  9.8

     total cpu time spent up to now is        0.8 secs

     total energy              =     -22.79096231 Ry
     estimated scf accuracy    <       0.00014268 Ry

     iteration #  4     ecut=    50.00 Ry     beta= 0.70
     Davidson diagonalization with overlap
     c_bands:  1 eigenvalues not converged
     ethr =  1.78E-06,  avg # of iterations =  6.3

     total cpu time spent up to now is        1.0 secs

     total energy              =     -22.79100277 Ry
     estimated scf accuracy    <       0.00000019 Ry

     iteration #  5     ecut=    50.00 Ry     beta= 0.70
     Davidson diagonalization with overlap
     ethr =  2.42E-09,  avg # of iterations =  4.6

     total cpu time spent up to now is        1.2 secs

     total energy              =     -22.79100550 Ry
     estimated scf accuracy    <       0.00000003 Ry

     iteration #  6     ecut=    50.00 Ry     beta= 0.70
     Davidson diagonalization with overlap
     ethr =  3.47E-10,  avg # of iterations =  2.0

     total cpu time spent up to now is        1.3 secs

     End of self-consistent calculation

          k = 0.0000 0.0000 0.0000 (  4531 PWs)   bands (ev):

   -23.7557 -11.8468  -7.3500  -7.3500  -0.9785  -0.2026   0.5868   0.9415

          k = 0.0000 0.0770 0.0000 (  4551 PWs)   bands (ev):

   -23.6513 -11.7208  -7.7715  -7.5699  -0.8366  -0.0587   0.7316   1.0858

          k = 0.0000 0.1540 0.0000 (  4585 PWs)   bands (ev):

   -23.3388 -11.3485  -8.8939  -8.1276  -0.4108   0.3725   1.1663   1.5182

          k = 0.0000 0.2309 0.0000 (  4589 PWs)   bands (ev):

   -22.8204 -10.7355 -10.4327  -8.8271   0.2983   1.0886   1.8905   2.2363

          k = 0.0000 0.3079 0.0000 (  4573 PWs)   bands (ev):

   -22.1003 -12.1550  -9.8972  -9.5069   1.2884   2.0436   2.5328   2.9015

          k = 0.0000 0.3849 0.0000 (  4577 PWs)   bands (ev):

   -21.1860 -13.9126 -10.0754  -8.8651   0.6302   2.5492   3.3851   3.3989

          k = 0.0000 0.4619 0.0000 (  4579 PWs)   bands (ev):

   -20.0942 -15.6022 -10.4770  -7.7273  -1.1061   3.1518   4.1256   4.9574

          k = 0.0000 0.5389 0.0000 (  4594 PWs)   bands (ev):

   -18.9049 -17.1006 -10.6838  -6.7771  -2.3761   3.0512   5.9208   6.7760

          k = 0.0667 0.1155 0.0000 (  4573 PWs)   bands (ev):

   -23.4429 -11.4723  -8.4928  -8.0107  -0.5527   0.2289   1.0214   1.3742

          k = 0.0667 0.1925 0.0000 (  4580 PWs)   bands (ev):

   -23.0274 -10.9789  -9.7341  -8.7302   0.0151   0.8030   1.6010   1.9500

          k = 0.0667 0.2694 0.0000 (  4565 PWs)   bands (ev):

   -22.4081 -11.3064 -10.2521  -9.4794   0.8654   1.6578   2.4702   2.8007

          k = 0.0667 0.3464 0.0000 (  4569 PWs)   bands (ev):

   -21.5908 -13.0164 -10.1354  -9.3124   1.4632   1.9948   2.8267   3.6200

          k = 0.0667 0.4234 0.0000 (  4579 PWs)   bands (ev):

   -20.5864 -14.7262 -10.6354  -8.2119  -0.3122   3.3742   3.7592   4.2401

          k = 0.0667 0.5004 0.0000 (  4575 PWs)   bands (ev):

   -19.4257 -16.3328 -10.9457  -7.1019  -1.8668   3.5566   5.0932   5.9229

          k = 0.0667 0.5774 0.0000 (  4598 PWs)   bands (ev):

   -18.4832 -17.4282 -11.0507  -6.5184  -2.6074   3.5040   6.9301   7.0883

          k = 0.1333 0.2309 0.0000 (  4559 PWs)   bands (ev):

   -22.5110 -10.8294 -10.3710  -9.6827   0.7245   1.5186   2.3258   2.6685

          k = 0.1333 0.3079 0.0000 (  4561 PWs)   bands (ev):

   -21.7945 -12.2177 -10.5823  -9.5391   1.7152   2.0062   2.5232   3.3397

          k = 0.1333 0.3849 0.0000 (  4562 PWs)   bands (ev):

   -20.8860 -13.7987 -11.2517  -8.5150   0.3456   2.9823   3.7932   4.6371

          k = 0.1333 0.4619 0.0000 (  4568 PWs)   bands (ev):

   -19.8037 -15.4011 -11.6944  -7.3779  -1.2722   4.5004   4.9121   5.3203

          k = 0.1333 0.5389 0.0000 (  4567 PWs)   bands (ev):

   -18.6292 -16.8530 -11.9152  -6.4054  -2.5017   4.7704   6.3179   6.9944

          k = 0.2000 0.3464 0.0000 (  4569 PWs)   bands (ev):

   -20.9867 -13.2305 -11.7432  -8.6187   0.6151   2.8433   3.6374   4.4981

          k = 0.2000 0.4234 0.0000 (  4543 PWs)   bands (ev):

   -19.9975 -14.5053 -12.5572  -7.5308  -0.8521   4.2414   4.9976   5.9413

          k = 0.2000 0.5004 0.0000 (  4563 PWs)   bands (ev):

   -18.8619 -15.9202 -12.9844  -6.4025  -2.2333   5.8819   6.4170   6.5560

          k = 0.2000 0.5774 0.0000 (  4568 PWs)   bands (ev):

   -17.9456 -16.9457 -13.1169  -5.7581  -2.9649   6.4718   7.0562   7.6241

          k = 0.2667 0.4619 0.0000 (  4529 PWs)   bands (ev):

   -18.9485 -15.2879 -13.6674  -6.4129  -2.0902   5.7510   6.1869   7.4779

          k = 0.2667 0.5389 0.0000 (  4550 PWs)   bands (ev):

   -17.8213 -16.3257 -14.2062  -5.3407  -3.2211   6.5428   7.4277   8.2246

          k = 0.3333 0.5774 0.0000 (  4545 PWs)   bands (ev):

   -16.8752 -16.8752 -14.8091  -4.2605  -4.2605   6.3520   8.5750   8.5752

     the Fermi energy is    -4.2605 ev

!    total energy              =     -22.79100550 Ry
     estimated scf accuracy    <          4.6E-10 Ry
     smearing contrib. (-TS)   =      -0.00005015 Ry
     internal energy E=F+TS    =     -22.79095535 Ry

     The total energy is F=E-TS. E is the sum of the following terms:
     one-electron contribution =    -385.07310187 Ry
     hartree contribution      =     193.15069138 Ry
     xc contribution           =      -7.00052569 Ry
     ewald contribution        =     176.13198083 Ry

     convergence has been achieved in   6 iterations

     Forces acting on atoms (cartesian axes, Ry/au):

     atom    1 type  1   force =     0.00000000    0.00000000    0.00000000
     atom    2 type  1   force =     0.00000000    0.00000000    0.00000000

     Total force =     0.000000     Total SCF correction =     0.000000


     Computing stress (Cartesian axis) and pressure

          total   stress  (Ry/bohr**3)                   (kbar)     P=      -18.23
  -0.00013245   0.00000000   0.00000000          -19.48        0.00        0.00
   0.00000000  -0.00013245   0.00000000            0.00      -19.48        0.00
   0.00000000  -0.00000000  -0.00010687            0.00       -0.00      -15.72


     BFGS Geometry Optimization
     Energy error            =      0.0E+00
     Gradient error          =      0.0E+00
     Cell gradient error     =      1.3E-04


     number of scf cycles    =   1
     number of bfgs steps    =   0

     enthalpy new            =     -22.7910055007 Ry

     new trust radius        =       0.0183158292 bohr
     new conv_thr            =       0.0000000100 Ry

     new unit-cell volume =    759.86871 a.u.^3 (   112.60093 Ang^3 )
     density =      0.35425 g/cm^3

CELL_PARAMETERS (alat=  4.67000000)
   0.996688789  -0.000000000   0.000000000
  -0.498344394   0.863157811   0.000000000
   0.000000000   0.000000000   8.672376874

ATOMIC_POSITIONS (crystal)
C             0.3333333333        0.6666666667        0.5000000000
C             0.6666666667        0.3333333333        0.5000000000



     Writing output data file ./work/LiC467.save/
     NEW-OLD atomic charge density approx. for the potential

     negative rho (up, down):  8.567E-07 0.000E+00
     extrapolated charge    7.94685, renormalised to    8.00000

     total cpu time spent up to now is        1.3 secs

     Self-consistent Calculation

     iteration #  1     ecut=    50.00 Ry     beta= 0.70
     Davidson diagonalization with overlap
     c_bands:  2 eigenvalues not converged
     c_bands:  2 eigenvalues not converged
     c_bands:  2 eigenvalues not converged
     c_bands:  2 eigenvalues not converged
     c_bands:  1 eigenvalues not converged
     c_bands:  1 eigenvalues not converged
     c_bands:  1 eigenvalues not converged
     c_bands:  1 eigenvalues not converged
     ethr =  1.00E-06,  avg # of iterations = 13.9

     total cpu time spent up to now is        1.7 secs

     total energy              =     -22.79001319 Ry
     estimated scf accuracy    <       0.00080455 Ry

     iteration #  2     ecut=    50.00 Ry     beta= 0.70
     Davidson diagonalization with overlap
     ethr =  1.01E-05,  avg # of iterations = 11.0

     total cpu time spent up to now is        1.9 secs

     total energy              =     -22.79160882 Ry
     estimated scf accuracy    <       0.00074847 Ry

     iteration #  3     ecut=    50.00 Ry     beta= 0.70
     Davidson diagonalization with overlap
     ethr =  9.36E-06,  avg # of iterations =  1.0

     total cpu time spent up to now is        2.0 secs

     total energy              =     -22.79156560 Ry
     estimated scf accuracy    <       0.00017012 Ry

     iteration #  4     ecut=    50.00 Ry     beta= 0.70
     Davidson diagonalization with overlap
     ethr =  2.13E-06,  avg # of iterations =  2.3

     total cpu time spent up to now is        2.1 secs

     total energy              =     -22.79157633 Ry
     estimated scf accuracy    <       0.00002934 Ry

     iteration #  5     ecut=    50.00 Ry     beta= 0.70
     Davidson diagonalization with overlap
     ethr =  3.67E-07,  avg # of iterations =  1.0

     total cpu time spent up to now is        2.2 secs

     total energy              =     -22.79156070 Ry
     estimated scf accuracy    <       0.00002933 Ry

     iteration #  6     ecut=    50.00 Ry     beta= 0.70
     Davidson diagonalization with overlap
     ethr =  3.67E-07,  avg # of iterations =  2.0

     total cpu time spent up to now is        2.3 secs

     total energy              =     -22.79156283 Ry
     estimated scf accuracy    <       0.00000146 Ry

     iteration #  7     ecut=    50.00 Ry     beta= 0.70
     Davidson diagonalization with overlap
     ethr =  1.82E-08,  avg # of iterations =  2.0

     total cpu time spent up to now is        2.4 secs

     total energy              =     -22.79156326 Ry
     estimated scf accuracy    <       0.00000008 Ry

     iteration #  8     ecut=    50.00 Ry     beta= 0.70
     Davidson diagonalization with overlap
     ethr =  9.83E-10,  avg # of iterations =  2.4

     total cpu time spent up to now is        2.5 secs

     total energy              =     -22.79156326 Ry
     estimated scf accuracy    <       0.00000006 Ry

     iteration #  9     ecut=    50.00 Ry     beta= 0.70
     Davidson diagonalization with overlap
     ethr =  7.28E-10,  avg # of iterations =  2.0

     total cpu time spent up to now is        2.6 secs

     End of self-consistent calculation

          k = 0.0000 0.0000 0.0000 (  4531 PWs)   bands (ev):

   -23.8058 -11.8849  -7.3190  -7.3190  -0.9803  -0.2027   0.5860   0.9408

          k = 0.0000 0.0772 0.0000 (  4551 PWs)   bands (ev):

   -23.7008 -11.7578  -7.7419  -7.5412  -0.8375  -0.0578   0.7318   1.0861

          k = 0.0000 0.1545 0.0000 (  4585 PWs)   bands (ev):

   -23.3865 -11.3825  -8.8688  -8.1046  -0.4089   0.3764   1.1694   1.5214

          k = 0.0000 0.2317 0.0000 (  4589 PWs)   bands (ev):

   -22.8650 -10.7644 -10.4147  -8.8108   0.3048   1.0975   1.8984   2.2447

          k = 0.0000 0.3089 0.0000 (  4573 PWs)   bands (ev):

   -22.1406 -12.1459  -9.9191  -9.4967   1.3015   2.0651   2.6138   2.9167

          k = 0.0000 0.3862 0.0000 (  4577 PWs)   bands (ev):

   -21.2206 -13.9131 -10.0702  -8.8781   0.6983   2.5717   3.4243   3.5061

          k = 0.0000 0.4634 0.0000 (  4579 PWs)   bands (ev):

   -20.1213 -15.6132 -10.4752  -7.7298  -1.0563   3.2753   4.1602   4.9934

          k = 0.0000 0.5407 0.0000 (  4594 PWs)   bands (ev):

   -18.9194 -17.1257 -10.6837  -6.7698  -2.3403   3.1783   5.9657   6.8258

          k = 0.0669 0.1159 0.0000 (  4573 PWs)   bands (ev):

   -23.4912 -11.5073  -8.4656  -7.9865  -0.5517   0.2317   1.0235   1.3764

          k = 0.0669 0.1931 0.0000 (  4580 PWs)   bands (ev):

   -23.0732 -11.0099  -9.7119  -8.7129   0.0198   0.8098   1.6071   1.9562

          k = 0.0669 0.2703 0.0000 (  4565 PWs)   bands (ev):

   -22.4503 -11.2921 -10.2770  -9.4686   0.8757   1.6707   2.4818   2.8144

          k = 0.0669 0.3476 0.0000 (  4569 PWs)   bands (ev):

   -21.6280 -13.0113 -10.1299  -9.3293   1.5404   2.0127   2.8488   3.6419

          k = 0.0669 0.4248 0.0000 (  4579 PWs)   bands (ev):

   -20.6171 -14.7312 -10.6338  -8.2190  -0.2531   3.4072   3.8795   4.2712

          k = 0.0669 0.5020 0.0000 (  4575 PWs)   bands (ev):

   -19.4473 -16.3491 -10.9465  -7.0983  -1.8245   3.6845   5.1329   5.9664

          k = 0.0669 0.5793 0.0000 (  4598 PWs)   bands (ev):

   -18.4882 -17.4619 -11.0523  -6.5083  -2.5734   3.6332   6.9829   7.1401

          k = 0.1338 0.2317 0.0000 (  4559 PWs)   bands (ev):

   -22.5538 -10.8104 -10.3969  -9.6744   0.7339   1.5303   2.3366   2.6794

          k = 0.1338 0.3089 0.0000 (  4561 PWs)   bands (ev):

   -21.8329 -12.2053 -10.5809  -9.5580   1.7312   2.0911   2.5434   3.3574

          k = 0.1338 0.3862 0.0000 (  4562 PWs)   bands (ev):

   -20.9188 -13.7960 -11.2542  -8.5249   0.4139   3.0069   3.8210   4.6646

          k = 0.1338 0.4634 0.0000 (  4568 PWs)   bands (ev):

   -19.8290 -15.4091 -11.6994  -7.3775  -1.2210   4.5393   5.0407   5.3594

          k = 0.1338 0.5407 0.0000 (  4567 PWs)   bands (ev):

   -18.6423 -16.8749 -11.9214  -6.3950  -2.4639   4.9044   6.3659   7.0485

          k = 0.2007 0.3476 0.0000 (  4569 PWs)   bands (ev):

   -21.0202 -13.2195 -11.7528  -8.6296   0.6878   2.8669   3.6643   4.5235

          k = 0.2007 0.4248 0.0000 (  4543 PWs)   bands (ev):

   -20.0245 -14.5021 -12.5715  -7.5321  -0.7938   4.2745   5.0345   5.9769

          k = 0.2007 0.5020 0.0000 (  4563 PWs)   bands (ev):

   -18.8801 -15.9290 -12.9994  -6.3930  -2.1890   5.9281   6.4665   6.6947

          k = 0.2007 0.5793 0.0000 (  4568 PWs)   bands (ev):

   -17.9491 -16.9704 -13.1320  -5.7419  -2.9287   6.6128   7.1119   7.6849

          k = 0.2676 0.4634 0.0000 (  4529 PWs)   bands (ev):

   -18.9680 -15.2835 -13.6947  -6.4040  -2.0427   5.7949   6.2339   7.5239

          k = 0.2676 0.5407 0.0000 (  4550 PWs)   bands (ev):

   -17.8300 -16.3310 -14.2368  -5.3214  -3.1841   6.5904   7.4879   8.3631

          k = 0.3344 0.5793 0.0000 (  4545 PWs)   bands (ev):

   -16.8756 -16.8756 -14.8539  -4.2318  -4.2318   6.3958   8.6717   8.6717

     the Fermi energy is    -4.2318 ev

!    total energy              =     -22.79156327 Ry
     estimated scf accuracy    <          5.1E-10 Ry
     smearing contrib. (-TS)   =      -0.00005015 Ry
     internal energy E=F+TS    =     -22.79151312 Ry

     The total energy is F=E-TS. E is the sum of the following terms:
     one-electron contribution =    -387.66629447 Ry
     hartree contribution      =     194.45386900 Ry
     xc contribution           =      -7.01476826 Ry
     ewald contribution        =     177.43568060 Ry

     convergence has been achieved in   9 iterations

     Forces acting on atoms (cartesian axes, Ry/au):

     atom    1 type  1   force =    -0.00000000   -0.00000000    0.00000000
     atom    2 type  1   force =     0.00000000    0.00000000    0.00000000

     Total force =     0.000000     Total SCF correction =     0.000000


     Computing stress (Cartesian axis) and pressure

          total   stress  (Ry/bohr**3)                   (kbar)     P=      -13.85
  -0.00008787   0.00000000  -0.00000000          -12.93        0.00       -0.00
   0.00000000  -0.00008787   0.00000000            0.00      -12.93        0.00
   0.00000000   0.00000000  -0.00010669            0.00        0.00      -15.70

     Energy error            =      5.6E-04
     Gradient error          =      1.7E-26
     Cell gradient error     =      8.8E-05


     number of scf cycles    =   2
     number of bfgs steps    =   1

     enthalpy old            =     -22.7910055007 Ry
     enthalpy new            =     -22.7915632680 Ry

     CASE: enthalpy_new < enthalpy_old

     new trust radius        =       0.0201474121 bohr
     new conv_thr            =            1.0E-10 Ry

     new unit-cell volume =    754.32508 a.u.^3 (   111.77944 Ang^3 )
     density =      0.35685 g/cm^3

CELL_PARAMETERS (alat=  4.67000000)
   0.993046456   0.000000000   0.000000000
  -0.496523228   0.860003458   0.000000000
   0.000000000   0.000000000   8.672376874

ATOMIC_POSITIONS (crystal)
C             0.3333333333        0.6666666667        0.5000000000
C             0.6666666667        0.3333333333        0.5000000000



     Writing output data file ./work/LiC467.save/
     NEW-OLD atomic charge density approx. for the potential

     negative rho (up, down):  4.370E-07 0.000E+00
     extrapolated charge    7.94131, renormalised to    8.00000

     total cpu time spent up to now is        2.7 secs

     Self-consistent Calculation

     iteration #  1     ecut=    50.00 Ry     beta= 0.70
     Davidson diagonalization with overlap
     c_bands:  2 eigenvalues not converged
     c_bands:  2 eigenvalues not converged
     c_bands:  2 eigenvalues not converged
     c_bands:  2 eigenvalues not converged
     c_bands:  1 eigenvalues not converged
     ethr =  1.00E-06,  avg # of iterations = 14.0

     total cpu time spent up to now is        3.0 secs

     total energy              =     -22.79002216 Ry
     estimated scf accuracy    <       0.00097990 Ry

     iteration #  2     ecut=    50.00 Ry     beta= 0.70
     Davidson diagonalization with overlap
     ethr =  1.22E-05,  avg # of iterations = 10.6

     total cpu time spent up to now is        3.3 secs

     total energy              =     -22.79196611 Ry
     estimated scf accuracy    <       0.00091430 Ry

     iteration #  3     ecut=    50.00 Ry     beta= 0.70
     Davidson diagonalization with overlap
     ethr =  1.14E-05,  avg # of iterations =  1.0

     total cpu time spent up to now is        3.4 secs

     total energy              =     -22.79191096 Ry
     estimated scf accuracy    <       0.00020750 Ry

     iteration #  4     ecut=    50.00 Ry     beta= 0.70
     Davidson diagonalization with overlap
     ethr =  2.59E-06,  avg # of iterations =  2.8

     total cpu time spent up to now is        3.5 secs

     total energy              =     -22.79192594 Ry
     estimated scf accuracy    <       0.00003220 Ry

     iteration #  5     ecut=    50.00 Ry     beta= 0.70
     Davidson diagonalization with overlap
     ethr =  4.03E-07,  avg # of iterations =  1.0

     total cpu time spent up to now is        3.6 secs

     total energy              =     -22.79191321 Ry
     estimated scf accuracy    <       0.00003357 Ry

     iteration #  6     ecut=    50.00 Ry     beta= 0.70
     Davidson diagonalization with overlap
     ethr =  4.03E-07,  avg # of iterations =  1.0

     total cpu time spent up to now is        3.7 secs

     total energy              =     -22.79190951 Ry
     estimated scf accuracy    <       0.00000846 Ry

     iteration #  7     ecut=    50.00 Ry     beta= 0.70
     Davidson diagonalization with overlap
     ethr =  1.06E-07,  avg # of iterations =  2.0

     total cpu time spent up to now is        3.8 secs

     total energy              =     -22.79191085 Ry
     estimated scf accuracy    <       0.00000009 Ry

     iteration #  8     ecut=    50.00 Ry     beta= 0.70
     Davidson diagonalization with overlap
     ethr =  1.17E-09,  avg # of iterations =  2.9

     total cpu time spent up to now is        3.9 secs

     total energy              =     -22.79191090 Ry
     estimated scf accuracy    <       0.00000002 Ry

     iteration #  9     ecut=    50.00 Ry     beta= 0.70
     Davidson diagonalization with overlap
     ethr =  2.83E-10,  avg # of iterations =  2.0

     total cpu time spent up to now is        4.0 secs

     total energy              =     -22.79191090 Ry
     estimated scf accuracy    <          6.1E-10 Ry

     iteration # 10     ecut=    50.00 Ry     beta= 0.70
     Davidson diagonalization with overlap
     ethr =  7.60E-12,  avg # of iterations =  2.6

     total cpu time spent up to now is        4.1 secs

     total energy              =     -22.79191090 Ry
     estimated scf accuracy    <          3.7E-09 Ry

     iteration # 11     ecut=    50.00 Ry     beta= 0.70
     Davidson diagonalization with overlap
     ethr =  7.60E-12,  avg # of iterations =  2.0

     total cpu time spent up to now is        4.3 secs

     End of self-consistent calculation

          k = 0.0000 0.0000 0.0000 (  4531 PWs)   bands (ev):

   -23.8616 -11.9275  -7.2846  -7.2846  -0.9824  -0.2027   0.5859   0.9407

          k =-0.0000 0.0775 0.0000 (  4551 PWs)   bands (ev):

   -23.7559 -11.7993  -7.7092  -7.5095  -0.8385  -0.0567   0.7328   1.0871

          k =-0.0000 0.1550 0.0000 (  4585 PWs)   bands (ev):

   -23.4396 -11.4206  -8.8411  -8.0791  -0.4069   0.3807   1.1736   1.5256

          k =-0.0000 0.2326 0.0000 (  4589 PWs)   bands (ev):

   -22.9148 -10.7969 -10.3949  -8.7928   0.3120   1.1073   1.9081   2.2543

          k =-0.0000 0.3101 0.0000 (  4573 PWs)   bands (ev):

   -22.1856 -12.1359  -9.9437  -9.4856   1.3160   2.0876   2.7042   2.9340

          k =-0.0000 0.3876 0.0000 (  4577 PWs)   bands (ev):

   -21.2593 -13.9139 -10.0646  -8.8928   0.7735   2.5964   3.4525   3.6402

          k =-0.0000 0.4651 0.0000 (  4579 PWs)   bands (ev):

   -20.1517 -15.6255 -10.4733  -7.7329  -1.0015   3.4115   4.1992   5.0336

          k =-0.0000 0.5426 0.0000 (  4594 PWs)   bands (ev):

   -18.9359 -17.1537 -10.6837  -6.7619  -2.3010   3.3192   6.0154   6.8810

          k = 0.0671 0.1163 0.0000 (  4573 PWs)   bands (ev):

   -23.5449 -11.5465  -8.4356  -7.9598  -0.5507   0.2350   1.0267   1.3795

          k = 0.0671 0.1938 0.0000 (  4580 PWs)   bands (ev):

   -23.1243 -11.0446  -9.6875  -8.6939   0.0249   0.8174   1.6145   1.9637

          k = 0.0671 0.2713 0.0000 (  4565 PWs)   bands (ev):

   -22.4973 -11.2764 -10.3050  -9.4566   0.8871   1.6851   2.4957   2.8299

          k = 0.0671 0.3488 0.0000 (  4569 PWs)   bands (ev):

   -21.6695 -13.0059 -10.1239  -9.3484   1.6258   2.0325   2.8734   3.6655

          k = 0.0671 0.4264 0.0000 (  4579 PWs)   bands (ev):

   -20.6515 -14.7369 -10.6321  -8.2272  -0.1879   3.4416   4.0150   4.3058

          k = 0.0671 0.5039 0.0000 (  4575 PWs)   bands (ev):

   -19.4717 -16.3674 -10.9475  -7.0946  -1.7778   3.8259   5.1771   6.0146

          k = 0.0671 0.5814 0.0000 (  4598 PWs)   bands (ev):

   -18.4938 -17.4999 -11.0542  -6.4975  -2.5361   3.7763   7.0415   7.1979

          k = 0.1343 0.2326 0.0000 (  4559 PWs)   bands (ev):

   -22.6015 -10.7894 -10.4260  -9.6654   0.7443   1.5435   2.3494   2.6924

          k = 0.1343 0.3101 0.0000 (  4561 PWs)   bands (ev):

   -21.8759 -12.1917 -10.5795  -9.5793   1.7489   2.1846   2.5663   3.3777

          k = 0.1343 0.3876 0.0000 (  4562 PWs)   bands (ev):

   -20.9555 -13.7932 -11.2571  -8.5364   0.4895   3.0340   3.8520   4.6954

          k = 0.1343 0.4651 0.0000 (  4568 PWs)   bands (ev):

   -19.8574 -15.4181 -11.7050  -7.3773  -1.1644   4.5810   5.1845   5.4031

          k = 0.1343 0.5426 0.0000 (  4567 PWs)   bands (ev):

   -18.6572 -16.8994 -11.9283  -6.3838  -2.4223   5.0526   6.4193   7.1084

          k = 0.2014 0.3488 0.0000 (  4569 PWs)   bands (ev):

   -21.0576 -13.2075 -11.7637  -8.6421   0.7683   2.8930   3.6939   4.5525

          k = 0.2014 0.4264 0.0000 (  4543 PWs)   bands (ev):

   -20.0548 -14.4988 -12.5875  -7.5338  -0.7294   4.3112   5.0755   6.0168

          k = 0.2014 0.5039 0.0000 (  4563 PWs)   bands (ev):

   -18.9006 -15.9391 -13.0160  -6.3828  -2.1402   5.9789   6.5212   6.8485

          k = 0.2014 0.5814 0.0000 (  4568 PWs)   bands (ev):

   -17.9530 -16.9985 -13.1487  -5.7241  -2.8887   6.7686   7.1736   7.7523

          k = 0.2685 0.4651 0.0000 (  4529 PWs)   bands (ev):

   -18.9900 -15.2788 -13.7251  -6.3943  -1.9902   5.8436   6.2860   7.5759

          k = 0.2685 0.5426 0.0000 (  4550 PWs)   bands (ev):

   -17.8400 -16.3373 -14.2706  -5.3004  -3.1432   6.6431   7.5541   8.5160

          k = 0.3357 0.5814 0.0000 (  4545 PWs)   bands (ev):

   -16.8761 -16.8761 -14.9039  -4.2002  -4.2002   6.4443   8.7771   8.7771

     the Fermi energy is    -4.2002 ev

!    total energy              =     -22.79191090 Ry
     estimated scf accuracy    <          3.1E-11 Ry
     smearing contrib. (-TS)   =      -0.00005015 Ry
     internal energy E=F+TS    =     -22.79186075 Ry

     The total energy is F=E-TS. E is the sum of the following terms:
     one-electron contribution =    -390.54963124 Ry
     hartree contribution      =     195.90301106 Ry
     xc contribution           =      -7.03058753 Ry
     ewald contribution        =     178.88534695 Ry

     convergence has been achieved in  11 iterations

     Forces acting on atoms (cartesian axes, Ry/au):

     atom    1 type  1   force =     0.00000000    0.00000000    0.00000000
     atom    2 type  1   force =     0.00000000    0.00000000    0.00000000

     Total force =     0.000000     Total SCF correction =     0.000000


     Computing stress (Cartesian axis) and pressure

          total   stress  (Ry/bohr**3)                   (kbar)     P=       -8.86
  -0.00003722  -0.00000000   0.00000000           -5.48       -0.00        0.00
   0.00000000  -0.00003722   0.00000000            0.00       -5.48        0.00
  -0.00000000   0.00000000  -0.00010632           -0.00        0.00      -15.64

     Energy error            =      3.5E-04
     Gradient error          =      0.0E+00
     Cell gradient error     =      3.7E-05


     number of scf cycles    =   3
     number of bfgs steps    =   2

     enthalpy old            =     -22.7915632680 Ry
     enthalpy new            =     -22.7919109037 Ry

     CASE: enthalpy_new < enthalpy_old

     new trust radius        =       0.0147127435 bohr
     new conv_thr            =            1.0E-10 Ry

     new unit-cell volume =    750.28964 a.u.^3 (   111.18145 Ang^3 )
     density =      0.35877 g/cm^3

CELL_PARAMETERS (alat=  4.67000000)
   0.990386626   0.000000000   0.000000000
  -0.495193313   0.857699978   0.000000000
   0.000000000   0.000000000   8.672376874

ATOMIC_POSITIONS (crystal)
C             0.3333333333        0.6666666667        0.5000000000
C             0.6666666667        0.3333333333        0.5000000000



     Writing output data file ./work/LiC467.save/
     NEW-OLD atomic charge density approx. for the potential

     negative rho (up, down):  3.521E-08 0.000E+00
     extrapolated charge    7.95705, renormalised to    8.00000

     total cpu time spent up to now is        4.3 secs

     Self-consistent Calculation

     iteration #  1     ecut=    50.00 Ry     beta= 0.70
     Davidson diagonalization with overlap
     c_bands:  2 eigenvalues not converged
     c_bands:  1 eigenvalues not converged
     c_bands:  2 eigenvalues not converged
     ethr =  1.00E-06,  avg # of iterations = 13.5

     total cpu time spent up to now is        4.6 secs

     total energy              =     -22.79094629 Ry
     estimated scf accuracy    <       0.00053664 Ry

     iteration #  2     ecut=    50.00 Ry     beta= 0.70
     Davidson diagonalization with overlap
     ethr =  6.71E-06,  avg # of iterations = 11.4

     total cpu time spent up to now is        4.9 secs

     total energy              =     -22.79201546 Ry
     estimated scf accuracy    <       0.00050267 Ry

     iteration #  3     ecut=    50.00 Ry     beta= 0.70
     Davidson diagonalization with overlap
     ethr =  6.28E-06,  avg # of iterations =  1.1

     total cpu time spent up to now is        5.0 secs

     total energy              =     -22.79198685 Ry
     estimated scf accuracy    <       0.00011461 Ry

     iteration #  4     ecut=    50.00 Ry     beta= 0.70
     Davidson diagonalization with overlap
     ethr =  1.43E-06,  avg # of iterations =  2.1

     total cpu time spent up to now is        5.1 secs

     total energy              =     -22.79199392 Ry
     estimated scf accuracy    <       0.00002067 Ry

     iteration #  5     ecut=    50.00 Ry     beta= 0.70
     Davidson diagonalization with overlap
     ethr =  2.58E-07,  avg # of iterations =  1.0

     total cpu time spent up to now is        5.2 secs

     total energy              =     -22.79198249 Ry
     estimated scf accuracy    <       0.00002080 Ry

     iteration #  6     ecut=    50.00 Ry     beta= 0.70
     Davidson diagonalization with overlap
     ethr =  2.58E-07,  avg # of iterations =  2.0

     total cpu time spent up to now is        5.3 secs

     total energy              =     -22.79198439 Ry
     estimated scf accuracy    <       0.00000074 Ry

     iteration #  7     ecut=    50.00 Ry     beta= 0.70
     Davidson diagonalization with overlap
     ethr =  9.26E-09,  avg # of iterations =  2.1

     total cpu time spent up to now is        5.4 secs

     total energy              =     -22.79198464 Ry
     estimated scf accuracy    <       0.00000005 Ry

     iteration #  8     ecut=    50.00 Ry     beta= 0.70
     Davidson diagonalization with overlap
     ethr =  6.77E-10,  avg # of iterations =  2.4

     total cpu time spent up to now is        5.5 secs

     total energy              =     -22.79198464 Ry
     estimated scf accuracy    <       0.00000003 Ry

     iteration #  9     ecut=    50.00 Ry     beta= 0.70
     Davidson diagonalization with overlap
     ethr =  4.24E-10,  avg # of iterations =  2.0

     total cpu time spent up to now is        5.6 secs

     total energy              =     -22.79198465 Ry
     estimated scf accuracy    <          2.4E-10 Ry

     iteration # 10     ecut=    50.00 Ry     beta= 0.70
     Davidson diagonalization with overlap
     ethr =  3.01E-12,  avg # of iterations =  3.6

     total cpu time spent up to now is        5.7 secs

     total energy              =     -22.79198465 Ry
     estimated scf accuracy    <          3.2E-10 Ry

     iteration # 11     ecut=    50.00 Ry     beta= 0.70
     Davidson diagonalization with overlap
     ethr =  3.01E-12,  avg # of iterations =  1.0

     total cpu time spent up to now is        5.8 secs

     End of self-consistent calculation

          k = 0.0000 0.0000 0.0000 (  4531 PWs)   bands (ev):

   -23.9025 -11.9588  -7.2589  -7.2589  -0.9838  -0.2026   0.5858   0.9406

          k =-0.0000 0.0777 0.0000 (  4551 PWs)   bands (ev):

   -23.7963 -11.8298  -7.6848  -7.4857  -0.8392  -0.0557   0.7335   1.0878

          k =-0.0000 0.1555 0.0000 (  4585 PWs)   bands (ev):

   -23.4784 -11.4486  -8.8204  -8.0600  -0.4052   0.3841   1.1766   1.5288

          k =-0.0000 0.2332 0.0000 (  4589 PWs)   bands (ev):

   -22.9511 -10.8208 -10.3801  -8.7792   0.3175   1.1148   1.9150   2.2616

          k =-0.0000 0.3109 0.0000 (  4573 PWs)   bands (ev):

   -22.2184 -12.1284  -9.9618  -9.4771   1.3269   2.1036   2.7709   2.9468

          k =-0.0000 0.3886 0.0000 (  4577 PWs)   bands (ev):

   -21.2876 -13.9142 -10.0601  -8.9036   0.8289   2.6147   3.4735   3.7381

          k =-0.0000 0.4664 0.0000 (  4579 PWs)   bands (ev):

   -20.1739 -15.6343 -10.4716  -7.7350  -0.9610   3.5113   4.2288   5.0634

          k =-0.0000 0.5441 0.0000 (  4594 PWs)   bands (ev):

   -18.9479 -17.1739 -10.6834  -6.7560  -2.2720   3.4231   6.0523   6.9218

          k = 0.0673 0.1166 0.0000 (  4573 PWs)   bands (ev):

   -23.5843 -11.5754  -8.4131  -7.9398  -0.5498   0.2376   1.0289   1.3819

          k = 0.0673 0.1943 0.0000 (  4580 PWs)   bands (ev):

   -23.1617 -11.0701  -9.6692  -8.6795   0.0288   0.8232   1.6199   1.9693

          k = 0.0673 0.2720 0.0000 (  4565 PWs)   bands (ev):

   -22.5317 -11.2646 -10.3256  -9.4475   0.8956   1.6959   2.5060   2.8411

          k = 0.0673 0.3498 0.0000 (  4569 PWs)   bands (ev):

   -21.6998 -13.0017 -10.1191  -9.3624   1.6886   2.0472   2.8919   3.6828

          k = 0.0673 0.4275 0.0000 (  4579 PWs)   bands (ev):

   -20.6766 -14.7408 -10.6306  -8.2332  -0.1398   3.4663   4.1156   4.3314

          k = 0.0673 0.5052 0.0000 (  4575 PWs)   bands (ev):

   -19.4895 -16.3805 -10.9479  -7.0918  -1.7433   3.9302   5.2099   6.0503

          k = 0.0673 0.5830 0.0000 (  4598 PWs)   bands (ev):

   -18.4975 -17.5277 -11.0553  -6.4894  -2.5086   3.8819   7.0849   7.2406

          k = 0.1346 0.2332 0.0000 (  4559 PWs)   bands (ev):

   -22.6364 -10.7737 -10.4474  -9.6584   0.7521   1.5533   2.3589   2.7020

          k = 0.1346 0.3109 0.0000 (  4561 PWs)   bands (ev):

   -21.9072 -12.1815 -10.5781  -9.5950   1.7621   2.2531   2.5838   3.3927

          k = 0.1346 0.3886 0.0000 (  4562 PWs)   bands (ev):

   -20.9823 -13.7910 -11.2588  -8.5447   0.5453   3.0542   3.8751   4.7180

          k = 0.1346 0.4664 0.0000 (  4568 PWs)   bands (ev):

   -19.8781 -15.4246 -11.7087  -7.3770  -1.1226   4.6113   5.2909   5.4354

          k = 0.1346 0.5441 0.0000 (  4567 PWs)   bands (ev):

   -18.6681 -16.9171 -11.9331  -6.3754  -2.3916   5.1619   6.4589   7.1526

          k = 0.2019 0.3498 0.0000 (  4569 PWs)   bands (ev):

   -21.0850 -13.1984 -11.7713  -8.6512   0.8278   2.9124   3.7159   4.5739

          k = 0.2019 0.4275 0.0000 (  4543 PWs)   bands (ev):

   -20.0769 -14.4962 -12.5989  -7.5349  -0.6818   4.3384   5.1059   6.0467

          k = 0.2019 0.5052 0.0000 (  4563 PWs)   bands (ev):

   -18.9155 -15.9464 -13.0278  -6.3751  -2.1041   6.0163   6.5617   6.9617

          k = 0.2019 0.5830 0.0000 (  4568 PWs)   bands (ev):

   -17.9556 -17.0191 -13.1605  -5.7109  -2.8592   6.8833   7.2193   7.8020

          k = 0.2693 0.4664 0.0000 (  4529 PWs)   bands (ev):

   -19.0060 -15.2750 -13.7472  -6.3871  -1.9514   5.8796   6.3246   7.6149

          k = 0.2693 0.5441 0.0000 (  4550 PWs)   bands (ev):

   -17.8472 -16.3418 -14.2950  -5.2848  -3.1130   6.6821   7.6028   8.6281

          k = 0.3366 0.5830 0.0000 (  4545 PWs)   bands (ev):

   -16.8762 -16.8762 -14.9406  -4.1768  -4.1768   6.4801   8.8537   8.8537

     the Fermi energy is    -4.1768 ev

!    total energy              =     -22.79198465 Ry
     estimated scf accuracy    <          4.0E-12 Ry
     smearing contrib. (-TS)   =      -0.00005015 Ry
     internal energy E=F+TS    =     -22.79193450 Ry

     The total energy is F=E-TS. E is the sum of the following terms:
     one-electron contribution =    -392.67571792 Ry
     hartree contribution      =     196.97157228 Ry
     xc contribution           =      -7.04222012 Ry
     ewald contribution        =     179.95443125 Ry

     convergence has been achieved in  11 iterations

     Forces acting on atoms (cartesian axes, Ry/au):

     atom    1 type  1   force =    -0.00000000   -0.00000000    0.00000000
     atom    2 type  1   force =     0.00000000    0.00000000    0.00000000

     Total force =     0.000000     Total SCF correction =     0.000000


     Computing stress (Cartesian axis) and pressure

          total   stress  (Ry/bohr**3)                   (kbar)     P=       -5.12
   0.00000085   0.00000000   0.00000000            0.12        0.00        0.00
   0.00000000   0.00000085  -0.00000000            0.00        0.12       -0.00
   0.00000000  -0.00000000  -0.00010609            0.00       -0.00      -15.61

     Energy error            =      7.4E-05
     Gradient error          =      1.7E-26
     Cell gradient error     =      8.5E-07


     number of scf cycles    =   4
     number of bfgs steps    =   3

     enthalpy old            =     -22.7919109037 Ry
     enthalpy new            =     -22.7919846500 Ry

     CASE: enthalpy_new < enthalpy_old

     new trust radius        =       0.0003264017 bohr
     new conv_thr            =            1.0E-10 Ry

     new unit-cell volume =    750.37905 a.u.^3 (   111.19470 Ang^3 )
     density =      0.35873 g/cm^3

CELL_PARAMETERS (alat=  4.67000000)
   0.990445634   0.000000000   0.000000000
  -0.495222817   0.857751080   0.000000000
   0.000000000   0.000000000   8.672376874

ATOMIC_POSITIONS (crystal)
C             0.3333333333        0.6666666667        0.5000000000
C             0.6666666667        0.3333333333        0.5000000000



     Writing output data file ./work/LiC467.save/
     NEW-OLD atomic charge density approx. for the potential
     extrapolated charge    8.00095, renormalised to    8.00000

     total cpu time spent up to now is        5.9 secs

     Self-consistent Calculation

     iteration #  1     ecut=    50.00 Ry     beta= 0.70
     Davidson diagonalization with overlap
     ethr =  1.00E-06,  avg # of iterations =  1.8

     Threshold (ethr) on eigenvalues was too large:
     Diagonalizing with lowered threshold

     Davidson diagonalization with overlap
     ethr =  3.13E-09,  avg # of iterations =  1.4

     total cpu time spent up to now is        6.1 secs

     total energy              =     -22.79198416 Ry
     estimated scf accuracy    <       0.00000028 Ry

     iteration #  2     ecut=    50.00 Ry     beta= 0.70
     Davidson diagonalization with overlap
     ethr =  3.45E-09,  avg # of iterations =  2.9

     total cpu time spent up to now is        6.2 secs

     total energy              =     -22.79198471 Ry
     estimated scf accuracy    <       0.00000026 Ry

     iteration #  3     ecut=    50.00 Ry     beta= 0.70
     Davidson diagonalization with overlap
     ethr =  3.19E-09,  avg # of iterations =  1.0

     total cpu time spent up to now is        6.3 secs

     total energy              =     -22.79198469 Ry
     estimated scf accuracy    <       0.00000006 Ry

     iteration #  4     ecut=    50.00 Ry     beta= 0.70
     Davidson diagonalization with overlap
     ethr =  7.41E-10,  avg # of iterations =  1.9

     total cpu time spent up to now is        6.4 secs

     total energy              =     -22.79198469 Ry
     estimated scf accuracy    <          9.5E-09 Ry

     iteration #  5     ecut=    50.00 Ry     beta= 0.70
     Davidson diagonalization with overlap
     ethr =  1.19E-10,  avg # of iterations =  1.0

     total cpu time spent up to now is        6.5 secs

     total energy              =     -22.79198469 Ry
     estimated scf accuracy    <          9.9E-09 Ry

     iteration #  6     ecut=    50.00 Ry     beta= 0.70
     Davidson diagonalization with overlap
     ethr =  1.19E-10,  avg # of iterations =  1.0

     total cpu time spent up to now is        6.6 secs

     total energy              =     -22.79198469 Ry
     estimated scf accuracy    <          5.6E-09 Ry

     iteration #  7     ecut=    50.00 Ry     beta= 0.70
     Davidson diagonalization with overlap
     ethr =  7.01E-11,  avg # of iterations =  2.0

     total cpu time spent up to now is        6.7 secs

     End of self-consistent calculation

          k = 0.0000 0.0000 0.0000 (  4531 PWs)   bands (ev):

   -23.9015 -11.9581  -7.2595  -7.2595  -0.9837  -0.2026   0.5858   0.9406

          k =-0.0000 0.0777 0.0000 (  4551 PWs)   bands (ev):

   -23.7954 -11.8291  -7.6853  -7.4862  -0.8391  -0.0557   0.7335   1.0878

          k =-0.0000 0.1554 0.0000 (  4585 PWs)   bands (ev):

   -23.4775 -11.4480  -8.8208  -8.0605  -0.4053   0.3840   1.1766   1.5287

          k =-0.0000 0.2332 0.0000 (  4589 PWs)   bands (ev):

   -22.9503 -10.8202 -10.3804  -8.7795   0.3174   1.1146   1.9149   2.2614

          k =-0.0000 0.3109 0.0000 (  4573 PWs)   bands (ev):

   -22.2177 -12.1285  -9.9614  -9.4773   1.3266   2.1033   2.7694   2.9465

          k =-0.0000 0.3886 0.0000 (  4577 PWs)   bands (ev):

   -21.2870 -13.9142 -10.0602  -8.9033   0.8277   2.6143   3.4730   3.7360

          k =-0.0000 0.4663 0.0000 (  4579 PWs)   bands (ev):

   -20.1734 -15.6341 -10.4716  -7.7350  -0.9619   3.5091   4.2281   5.0627

          k =-0.0000 0.5441 0.0000 (  4594 PWs)   bands (ev):

   -18.9476 -17.1735 -10.6834  -6.7561  -2.2727   3.4208   6.0515   6.9208

          k = 0.0673 0.1166 0.0000 (  4573 PWs)   bands (ev):

   -23.5834 -11.5747  -8.4136  -7.9403  -0.5498   0.2375   1.0289   1.3818

          k = 0.0673 0.1943 0.0000 (  4580 PWs)   bands (ev):

   -23.1608 -11.0696  -9.6696  -8.6798   0.0288   0.8231   1.6198   1.9691

          k = 0.0673 0.2720 0.0000 (  4565 PWs)   bands (ev):

   -22.5309 -11.2648 -10.3251  -9.4477   0.8954   1.6956   2.5057   2.8409

          k = 0.0673 0.3498 0.0000 (  4569 PWs)   bands (ev):

   -21.6991 -13.0018 -10.1192  -9.3621   1.6872   2.0469   2.8915   3.6824

          k = 0.0673 0.4275 0.0000 (  4579 PWs)   bands (ev):

   -20.6760 -14.7407 -10.6306  -8.2330  -0.1408   3.4658   4.1134   4.3308

          k = 0.0673 0.5052 0.0000 (  4575 PWs)   bands (ev):

   -19.4890 -16.3802 -10.9479  -7.0919  -1.7441   3.9279   5.2091   6.0494

          k = 0.0673 0.5829 0.0000 (  4598 PWs)   bands (ev):

   -18.4974 -17.5271 -11.0553  -6.4896  -2.5092   3.8796   7.0840   7.2396

          k = 0.1346 0.2332 0.0000 (  4559 PWs)   bands (ev):

   -22.6356 -10.7741 -10.4469  -9.6586   0.7519   1.5531   2.3586   2.7018

          k = 0.1346 0.3109 0.0000 (  4561 PWs)   bands (ev):

   -21.9065 -12.1817 -10.5782  -9.5946   1.7618   2.2516   2.5834   3.3924

          k = 0.1346 0.3886 0.0000 (  4562 PWs)   bands (ev):

   -20.9817 -13.7910 -11.2588  -8.5445   0.5441   3.0537   3.8746   4.7175

          k = 0.1346 0.4663 0.0000 (  4568 PWs)   bands (ev):

   -19.8777 -15.4244 -11.7086  -7.3770  -1.1235   4.6107   5.2885   5.4346

          k = 0.1346 0.5441 0.0000 (  4567 PWs)   bands (ev):

   -18.6678 -16.9167 -11.9329  -6.3755  -2.3923   5.1595   6.4580   7.1516

          k = 0.2019 0.3498 0.0000 (  4569 PWs)   bands (ev):

   -21.0843 -13.1986 -11.7711  -8.6509   0.8265   2.9119   3.7154   4.5734

          k = 0.2019 0.4275 0.0000 (  4543 PWs)   bands (ev):

   -20.0764 -14.4962 -12.5986  -7.5349  -0.6829   4.3378   5.1052   6.0458

          k = 0.2019 0.5052 0.0000 (  4563 PWs)   bands (ev):

   -18.9152 -15.9462 -13.0275  -6.3753  -2.1049   6.0155   6.5607   6.9592

          k = 0.2019 0.5829 0.0000 (  4568 PWs)   bands (ev):

   -17.9555 -17.0187 -13.1603  -5.7112  -2.8598   6.8807   7.2183   7.8009

          k = 0.2692 0.4663 0.0000 (  4529 PWs)   bands (ev):

   -19.0056 -15.2751 -13.7467  -6.3873  -1.9522   5.8788   6.3238   7.6140

          k = 0.2692 0.5441 0.0000 (  4550 PWs)   bands (ev):

   -17.8470 -16.3417 -14.2945  -5.2851  -3.1136   6.6812   7.6017   8.6256

          k = 0.3365 0.5829 0.0000 (  4545 PWs)   bands (ev):

   -16.8762 -16.8762 -14.9397  -4.1773  -4.1773   6.4793   8.8520   8.8520

     the Fermi energy is    -4.1773 ev

!    total energy              =     -22.79198469 Ry
     estimated scf accuracy    <          4.2E-11 Ry
     smearing contrib. (-TS)   =      -0.00005015 Ry
     internal energy E=F+TS    =     -22.79193454 Ry

     The total energy is F=E-TS. E is the sum of the following terms:
     one-electron contribution =    -392.62836707 Ry
     hartree contribution      =     196.94777806 Ry
     xc contribution           =      -7.04196260 Ry
     ewald contribution        =     179.93061708 Ry

     convergence has been achieved in   7 iterations

     Forces acting on atoms (cartesian axes, Ry/au):

     atom    1 type  1   force =     0.00000000    0.00000000    0.00000000
     atom    2 type  1   force =     0.00000000    0.00000000    0.00000000

     Total force =     0.000000     Total SCF correction =     0.000000


     Computing stress (Cartesian axis) and pressure

          total   stress  (Ry/bohr**3)                   (kbar)     P=       -5.20
  -0.00000000  -0.00000000   0.00000000           -0.00       -0.00        0.00
  -0.00000000  -0.00000000  -0.00000000           -0.00       -0.00       -0.00
   0.00000000  -0.00000000  -0.00010609            0.00       -0.00      -15.61

     Energy error            =      3.7E-08
     Gradient error          =      0.0E+00
     Cell gradient error     =      2.7E-09


     bfgs converged in   5 scf cycles and   4 bfgs steps
     (criteria: energy <  1.0E-04 Ry, force <  1.0E-08Ry/Bohr, cell <  1.0E-03kbar)

     End of BFGS Geometry Optimization

     Final enthalpy =     -22.7919846875 Ry

     File ./work/LiC467.bfgs deleted, as requested
Begin final coordinates
     new unit-cell volume =    750.37905 a.u.^3 (   111.19470 Ang^3 )
     density =      0.35873 g/cm^3

CELL_PARAMETERS (alat=  4.67000000)
   0.990445634   0.000000000   0.000000000
  -0.495222817   0.857751080   0.000000000
   0.000000000   0.000000000   8.672376874

ATOMIC_POSITIONS (crystal)
C             0.3333333333        0.6666666667        0.5000000000
C             0.6666666667        0.3333333333        0.5000000000
End final coordinates



     Writing output data file ./work/LiC467.save/

     Final scf calculation at the relaxed structure.
     The G-vectors are recalculated for the final unit cell
     Results may differ from those at the preceding step.
 
     Parallelization info
     --------------------
     sticks:   dense  smooth     PW     G-vecs:    dense   smooth      PW
     Min           9       9      2                 1115     1115     170
     Max          10      10      3                 1144     1144     215
     Sum         301     301     91                35967    35967    6397
 


     bravais-lattice index     =            4
     lattice parameter (alat)  =       4.6700  a.u.
     unit-cell volume          =     750.3790 (a.u.)^3
     number of atoms/cell      =            2
     number of atomic types    =            1
     number of electrons       =         8.00
     number of Kohn-Sham states=            8
     kinetic-energy cutoff     =      50.0000  Ry
     charge density cutoff     =     200.0000  Ry
     scf convergence threshold =      1.0E-10
     mixing beta               =       0.7000
     number of iterations used =            8  plain     mixing
     press convergence thresh. =      1.0E-03
     Exchange-correlation= PBE
                           (   1   4   3   4   0   0   0)

     celldm(1)=   4.670000  celldm(2)=   0.000000  celldm(3)=   8.672377
     celldm(4)=   0.000000  celldm(5)=   0.000000  celldm(6)=   0.000000

     crystal axes: (cart. coord. in units of alat)
               a(1) = (   0.990446   0.000000   0.000000 )  
               a(2) = (  -0.495223   0.857751   0.000000 )  
               a(3) = (   0.000000   0.000000   8.672377 )  

     reciprocal axes: (cart. coord. in units 2 pi/alat)
               b(1) = (  1.009647  0.582920  0.000000 )  
               b(2) = ( -0.000000  1.165839  0.000000 )  
               b(3) = (  0.000000  0.000000  0.115309 )  


     PseudoPot. # 1 for C  read from file:
     /home/yhkim/qe-6.7/pseudo/ONCV1/1.2/C_ONCV_PBE-1.2.upf
     MD5 check sum: 1a5f83a7b1f58d24996abe00ed223ac6
     Pseudo is Norm-conserving, Zval =  4.0
     Generated using ONCVPSP code by D. R. Hamann
     Using radial grid of  602 points,  4 beta functions with: 
                l(1) =   0
                l(2) =   0
                l(3) =   1
                l(4) =   1

     atomic species   valence    mass     pseudopotential
        C              4.00    12.01070     C ( 1.00)

     24 Sym. Ops., with inversion, found



   Cartesian axes

     site n.     atom                  positions (alat units)
         1           C   tau(   1) = (  -0.0000000   0.5718341   4.3361884  )
         2           C   tau(   2) = (   0.4952228   0.2859170   4.3361884  )

     number of k points=    27  Methfessel-Paxton smearing, width (Ry)=  0.0100
                       cart. coord. in units 2pi/alat
        k(    1) = (   0.0000000   0.0000000   0.0000000), wk =   0.0088889
        k(    2) = (  -0.0000000   0.0777226   0.0000000), wk =   0.0533333
        k(    3) = (  -0.0000000   0.1554453   0.0000000), wk =   0.0533333
        k(    4) = (  -0.0000000   0.2331679   0.0000000), wk =   0.0533333
        k(    5) = (  -0.0000000   0.3108905   0.0000000), wk =   0.0533333
        k(    6) = (  -0.0000000   0.3886131   0.0000000), wk =   0.0533333
        k(    7) = (  -0.0000000   0.4663358   0.0000000), wk =   0.0533333
        k(    8) = (  -0.0000000   0.5440584   0.0000000), wk =   0.0533333
        k(    9) = (   0.0673098   0.1165839   0.0000000), wk =   0.0533333
        k(   10) = (   0.0673098   0.1943066   0.0000000), wk =   0.1066667
        k(   11) = (   0.0673098   0.2720292   0.0000000), wk =   0.1066667
        k(   12) = (   0.0673098   0.3497518   0.0000000), wk =   0.1066667
        k(   13) = (   0.0673098   0.4274744   0.0000000), wk =   0.1066667
        k(   14) = (   0.0673098   0.5051971   0.0000000), wk =   0.1066667
        k(   15) = (   0.0673098   0.5829197   0.0000000), wk =   0.0533333
        k(   16) = (   0.1346195   0.2331679   0.0000000), wk =   0.0533333
        k(   17) = (   0.1346195   0.3108905   0.0000000), wk =   0.1066667
        k(   18) = (   0.1346195   0.3886131   0.0000000), wk =   0.1066667
        k(   19) = (   0.1346195   0.4663358   0.0000000), wk =   0.1066667
        k(   20) = (   0.1346195   0.5440584   0.0000000), wk =   0.1066667
        k(   21) = (   0.2019293   0.3497518   0.0000000), wk =   0.0533333
        k(   22) = (   0.2019293   0.4274744   0.0000000), wk =   0.1066667
        k(   23) = (   0.2019293   0.5051971   0.0000000), wk =   0.1066667
        k(   24) = (   0.2019293   0.5829197   0.0000000), wk =   0.0533333
        k(   25) = (   0.2692391   0.4663358   0.0000000), wk =   0.0533333
        k(   26) = (   0.2692391   0.5440584   0.0000000), wk =   0.1066667
        k(   27) = (   0.3365488   0.5829197   0.0000000), wk =   0.0177778

     Dense  grid:    35967 G-vectors     FFT dimensions: (  24,  24, 192)

     Estimated max dynamical RAM per process >       1.96 MB

     Estimated total dynamical RAM >      62.56 MB
 ----2D----2D----2D----2D----2D----2D----2D----2D----2D----2D----2D----2D
  The code is running with the 2D cutoff
  Please refer to:
  Sohier, T., Calandra, M., & Mauri, F. (2017), 
  Density functional perturbation theory for gated two-dimensional heterostructu
 res:
  Theoretical developments and application to flexural phonons in graphene.
  Physical Review B, 96(7), 75448. https://doi.org/10.1103/PhysRevB.96.075448
 ----2D----2D----2D----2D----2D----2D----2D----2D----2D----2D----2D----2D

     Initial potential from superposition of free atoms

     starting charge    7.98607, renormalised to    8.00000

     negative rho (up, down):  1.138E-04 0.000E+00
     Starting wfcs are random

     total cpu time spent up to now is        6.9 secs

     Self-consistent Calculation

     iteration #  1     ecut=    50.00 Ry     beta= 0.70
     Davidson diagonalization with overlap
     c_bands:  1 eigenvalues not converged
     c_bands:  3 eigenvalues not converged
     c_bands:  5 eigenvalues not converged
     c_bands:  5 eigenvalues not converged
     c_bands:  4 eigenvalues not converged
     c_bands:  3 eigenvalues not converged
     c_bands:  2 eigenvalues not converged
     c_bands:  2 eigenvalues not converged
     c_bands:  2 eigenvalues not converged
     c_bands:  5 eigenvalues not converged
     c_bands:  5 eigenvalues not converged
     c_bands:  4 eigenvalues not converged
     c_bands:  2 eigenvalues not converged
     c_bands:  2 eigenvalues not converged
     c_bands:  2 eigenvalues not converged
     c_bands:  4 eigenvalues not converged
     c_bands:  4 eigenvalues not converged
     c_bands:  4 eigenvalues not converged
     c_bands:  3 eigenvalues not converged
     c_bands:  3 eigenvalues not converged
     c_bands:  4 eigenvalues not converged
     c_bands:  4 eigenvalues not converged
     c_bands:  3 eigenvalues not converged
     c_bands:  3 eigenvalues not converged
     c_bands:  3 eigenvalues not converged
     c_bands:  3 eigenvalues not converged
     c_bands:  3 eigenvalues not converged
     ethr =  1.00E-06,  avg # of iterations = 22.2

     negative rho (up, down):  2.280E-05 0.000E+00

     total cpu time spent up to now is        7.6 secs

     total energy              =     -22.75932462 Ry
     estimated scf accuracy    <       0.20267163 Ry

     iteration #  2     ecut=    50.00 Ry     beta= 0.70
     Davidson diagonalization with overlap
     ethr =  2.53E-03,  avg # of iterations =  2.3

     negative rho (up, down):  2.994E-06 0.000E+00

     total cpu time spent up to now is        7.7 secs

     total energy              =     -22.78992370 Ry
     estimated scf accuracy    <       0.00235488 Ry

     iteration #  3     ecut=    50.00 Ry     beta= 0.70
     Davidson diagonalization with overlap
     ethr =  2.94E-05,  avg # of iterations =  9.1

     total cpu time spent up to now is        7.9 secs

     total energy              =     -22.79032092 Ry
     estimated scf accuracy    <       0.00017387 Ry

     iteration #  4     ecut=    50.00 Ry     beta= 0.70
     Davidson diagonalization with overlap
     ethr =  2.17E-06,  avg # of iterations =  5.3

     total cpu time spent up to now is        8.1 secs

     total energy              =     -22.79033444 Ry
     estimated scf accuracy    <       0.00000119 Ry

     iteration #  5     ecut=    50.00 Ry     beta= 0.70
     Davidson diagonalization with overlap
     ethr =  1.49E-08,  avg # of iterations =  3.8

     total cpu time spent up to now is        8.2 secs

     total energy              =     -22.79033589 Ry
     estimated scf accuracy    <       0.00000004 Ry

     iteration #  6     ecut=    50.00 Ry     beta= 0.70
     Davidson diagonalization with overlap
     ethr =  4.65E-10,  avg # of iterations =  2.4

     total cpu time spent up to now is        8.3 secs

     total energy              =     -22.79033590 Ry
     estimated scf accuracy    <          8.0E-10 Ry

     iteration #  7     ecut=    50.00 Ry     beta= 0.70
     Davidson diagonalization with overlap
     ethr =  9.96E-12,  avg # of iterations =  3.3

     total cpu time spent up to now is        8.5 secs

     End of self-consistent calculation

          k = 0.0000 0.0000 0.0000 (  4459 PWs)   bands (ev):

   -23.9040 -11.9593  -7.2548  -7.2548  -0.9843  -0.2038   0.5834   0.9385

          k =-0.0000 0.0777 0.0000 (  4445 PWs)   bands (ev):

   -23.7975 -11.8304  -7.6809  -7.4810  -0.8397  -0.0570   0.7310   1.0857

          k =-0.0000 0.1554 0.0000 (  4477 PWs)   bands (ev):

   -23.4797 -11.4490  -8.8167  -8.0568  -0.4058   0.3828   1.1741   1.5266

          k =-0.0000 0.2332 0.0000 (  4463 PWs)   bands (ev):

   -22.9523 -10.8210 -10.3754  -8.7746   0.3169   1.1134   1.9124   2.2593

          k =-0.0000 0.3109 0.0000 (  4493 PWs)   bands (ev):

   -22.2195 -12.1290  -9.9612  -9.4763   1.3262   2.1023   2.7691   2.9441

          k =-0.0000 0.3886 0.0000 (  4501 PWs)   bands (ev):

   -21.2891 -13.9151 -10.0577  -8.9033   0.8287   2.6138   3.4720   3.7348

          k =-0.0000 0.4663 0.0000 (  4505 PWs)   bands (ev):

   -20.1752 -15.6358 -10.4689  -7.7352  -0.9624   3.5079   4.2275   5.0618

          k =-0.0000 0.5441 0.0000 (  4517 PWs)   bands (ev):

   -18.9494 -17.1748 -10.6809  -6.7567  -2.2735   3.4188   6.0513   6.9199

          k = 0.0673 0.1166 0.0000 (  4463 PWs)   bands (ev):

   -23.5855 -11.5754  -8.4083  -7.9349  -0.5504   0.2364   1.0264   1.3797

          k = 0.0673 0.1943 0.0000 (  4465 PWs)   bands (ev):

   -23.1629 -11.0703  -9.6649  -8.6752   0.0283   0.8219   1.6173   1.9670

          k = 0.0673 0.2720 0.0000 (  4474 PWs)   bands (ev):

   -22.5329 -11.2636 -10.3252  -9.4452   0.8950   1.6946   2.5033   2.8388

          k = 0.0673 0.3498 0.0000 (  4494 PWs)   bands (ev):

   -21.7012 -13.0026 -10.1174  -9.3624   1.6881   2.0464   2.8905   3.6801

          k = 0.0673 0.4275 0.0000 (  4494 PWs)   bands (ev):

   -20.6779 -14.7416 -10.6277  -8.2333  -0.1393   3.4654   4.1121   4.3299

          k = 0.0673 0.5052 0.0000 (  4504 PWs)   bands (ev):

   -19.4910 -16.3818 -10.9452  -7.0930  -1.7444   3.9266   5.2087   6.0484

          k = 0.0673 0.5829 0.0000 (  4490 PWs)   bands (ev):

   -18.4989 -17.5279 -11.0523  -6.4892  -2.5073   3.8785   7.0842   7.2396

          k = 0.1346 0.2332 0.0000 (  4461 PWs)   bands (ev):

   -22.6377 -10.7727 -10.4473  -9.6538   0.7514   1.5520   2.3562   2.6998

          k = 0.1346 0.3109 0.0000 (  4457 PWs)   bands (ev):

   -21.9086 -12.1801 -10.5732  -9.5952   1.7613   2.2530   2.5824   3.3900

          k = 0.1346 0.3886 0.0000 (  4491 PWs)   bands (ev):

   -20.9837 -13.7918 -11.2571  -8.5451   0.5438   3.0533   3.8736   4.7152

          k = 0.1346 0.4663 0.0000 (  4501 PWs)   bands (ev):

   -19.8797 -15.4256 -11.7069  -7.3777  -1.1239   4.6104   5.2884   5.4337

          k = 0.1346 0.5441 0.0000 (  4495 PWs)   bands (ev):

   -18.6695 -16.9181 -11.9315  -6.3763  -2.3926   5.1591   6.4578   7.1511

          k = 0.2019 0.3498 0.0000 (  4465 PWs)   bands (ev):

   -21.0862 -13.1975 -11.7666  -8.6513   0.8276   2.9115   3.7144   4.5710

          k = 0.2019 0.4275 0.0000 (  4471 PWs)   bands (ev):

   -20.0783 -14.4971 -12.5968  -7.5354  -0.6823   4.3374   5.1044   6.0434

          k = 0.2019 0.5052 0.0000 (  4479 PWs)   bands (ev):

   -18.9169 -15.9475 -13.0249  -6.3752  -2.1039   6.0153   6.5604   6.9619

          k = 0.2019 0.5829 0.0000 (  4480 PWs)   bands (ev):

   -17.9571 -17.0196 -13.1589  -5.7107  -2.8592   6.8822   7.2182   7.8017

          k = 0.2692 0.4663 0.0000 (  4457 PWs)   bands (ev):

   -19.0074 -15.2757 -13.7470  -6.3881  -1.9536   5.8786   6.3232   7.6140

          k = 0.2692 0.5441 0.0000 (  4470 PWs)   bands (ev):

   -17.8486 -16.3428 -14.2948  -5.2854  -3.1137   6.6808   7.6019   8.6281

          k = 0.3365 0.5829 0.0000 (  4431 PWs)   bands (ev):

   -16.8767 -16.8767 -14.9413  -4.1781  -4.1781   6.4787   8.8559   8.8559

     the Fermi energy is    -4.1781 ev

!    total energy              =     -22.79033590 Ry
     estimated scf accuracy    <          1.2E-11 Ry
     smearing contrib. (-TS)   =      -0.00005015 Ry
     internal energy E=F+TS    =     -22.79028575 Ry

     The total energy is F=E-TS. E is the sum of the following terms:
     one-electron contribution =    -392.62516992 Ry
     hartree contribution      =     196.94613523 Ry
     xc contribution           =      -7.04186814 Ry
     ewald contribution        =     179.93061707 Ry

     convergence has been achieved in   7 iterations

     Forces acting on atoms (cartesian axes, Ry/au):

     atom    1 type  1   force =     0.00000000    0.00000000    0.00000000
     atom    2 type  1   force =     0.00000000    0.00000000    0.00000000

     Total force =     0.000000     Total SCF correction =     0.000000


     Computing stress (Cartesian axis) and pressure

          total   stress  (Ry/bohr**3)                   (kbar)     P=       -6.26
  -0.00000890  -0.00000000   0.00000000           -1.31       -0.00        0.00
  -0.00000000  -0.00000890   0.00000000           -0.00       -1.31        0.00
   0.00000000   0.00000000  -0.00010982            0.00        0.00      -16.16


     Writing output data file ./work/LiC467.save/
 
     init_run     :      0.12s CPU      0.14s WALL (       2 calls)
     electrons    :      7.29s CPU      8.03s WALL (       6 calls)
     update_pot   :      0.05s CPU      0.05s WALL (       4 calls)
     forces       :      0.05s CPU      0.05s WALL (       6 calls)
     stress       :      0.13s CPU      0.14s WALL (       6 calls)

     Called by init_run:
     wfcinit      :      0.09s CPU      0.10s WALL (       2 calls)
     potinit      :      0.01s CPU      0.01s WALL (       2 calls)
     hinit0       :      0.01s CPU      0.01s WALL (       2 calls)

     Called by electrons:
     c_bands      :      6.34s CPU      6.87s WALL (      52 calls)
     sum_band     :      0.82s CPU      0.90s WALL (      52 calls)
     v_of_rho     :      0.10s CPU      0.11s WALL (      57 calls)
     mix_rho      :      0.02s CPU      0.02s WALL (      52 calls)

     Called by c_bands:
     init_us_2    :      0.05s CPU      0.06s WALL (    3186 calls)
     cegterg      :      6.18s CPU      6.69s WALL (    1407 calls)

     Called by *egterg:
     cdiaghg      :      0.64s CPU      0.69s WALL (    7187 calls)
     h_psi        :      5.12s CPU      5.54s WALL (    7379 calls)
     g_psi        :      0.02s CPU      0.02s WALL (    5918 calls)

     Called by h_psi:
     h_psi:calbec :      0.19s CPU      0.21s WALL (    7379 calls)
     vloc_psi     :      4.81s CPU      5.21s WALL (    7379 calls)
     add_vuspsi   :      0.05s CPU      0.06s WALL (    7379 calls)

     General routines
     calbec       :      0.22s CPU      0.24s WALL (    8189 calls)
     fft          :      0.09s CPU      0.10s WALL (     617 calls)
     ffts         :      0.01s CPU      0.01s WALL (      52 calls)
     fftw         :      5.21s CPU      5.64s WALL (   87894 calls)
 
     Parallel routines
     fft_scatt_xy :      0.38s CPU      0.41s WALL (   88563 calls)
     fft_scatt_yz :      2.71s CPU      2.94s WALL (   88563 calls)
 
     PWSCF        :      7.71s CPU      8.75s WALL

 
   This run was terminated on:  14:14:13  19Jan2024            

=------------------------------------------------------------------------------=
   JOB DONE.
=------------------------------------------------------------------------------=
