
     Program PWSCF v.6.7MaX starts on 19Jan2024 at 14:17: 8 

     This program is part of the open-source Quantum ESPRESSO suite
     for quantum simulation of materials; please cite
         "P. Giannozzi et al., J. Phys.:Condens. Matter 21 395502 (2009);
         "P. Giannozzi et al., J. Phys.:Condens. Matter 29 465901 (2017);
          URL http://www.quantum-espresso.org", 
     in publications or presentations arising from this work. More details at
     http://www.quantum-espresso.org/quote

     Parallel version (MPI), running on    32 processors

     MPI processes distributed on     1 nodes
     R & G space division:  proc/nbgrp/npool/nimage =      32
     Waiting for input...
     Reading input from standard input

     Current dimensions of program PWSCF are:
     Max number of different atomic species (ntypx) = 10
     Max number of k-points (npk) =  40000
     Max angular momentum in pseudopotentials (lmaxx) =  3
     Message from routine read_pp_mesh:
     mesh size missing, using the one in header

     Subspace diagonalization in iterative solution of the eigenvalue problem:
     a serial algorithm will be used

 
     Parallelization info
     --------------------
     sticks:   dense  smooth     PW     G-vecs:    dense   smooth      PW
     Min           9       9      3                 1179     1179     191
     Max          10      10      4                 1232     1232     223
     Sum         313     313     97                38859    38859    6799
 


     bravais-lattice index     =            4
     lattice parameter (alat)  =       4.8200  a.u.
     unit-cell volume          =     814.8539 (a.u.)^3
     number of atoms/cell      =            2
     number of atomic types    =            1
     number of electrons       =         8.00
     number of Kohn-Sham states=            8
     kinetic-energy cutoff     =      50.0000  Ry
     charge density cutoff     =     200.0000  Ry
     scf convergence threshold =      1.0E-08
     mixing beta               =       0.7000
     number of iterations used =            8  plain     mixing
     energy convergence thresh.=      1.0E-04
     force convergence thresh. =      1.0E-08
     press convergence thresh. =      1.0E-03
     Exchange-correlation= PBE
                           (   1   4   3   4   0   0   0)
     nstep                     =           50


     celldm(1)=   4.820000  celldm(2)=   0.000000  celldm(3)=   8.402490
     celldm(4)=   0.000000  celldm(5)=   0.000000  celldm(6)=   0.000000

     crystal axes: (cart. coord. in units of alat)
               a(1) = (   1.000000   0.000000   0.000000 )  
               a(2) = (  -0.500000   0.866025   0.000000 )  
               a(3) = (   0.000000   0.000000   8.402490 )  

     reciprocal axes: (cart. coord. in units 2 pi/alat)
               b(1) = (  1.000000  0.577350  0.000000 )  
               b(2) = (  0.000000  1.154701  0.000000 )  
               b(3) = (  0.000000  0.000000  0.119012 )  


     PseudoPot. # 1 for C  read from file:
     /home/yhkim/qe-6.7/pseudo/ONCV1/1.2/C_ONCV_PBE-1.2.upf
     MD5 check sum: 1a5f83a7b1f58d24996abe00ed223ac6
     Pseudo is Norm-conserving, Zval =  4.0
     Generated using ONCVPSP code by D. R. Hamann
     Using radial grid of  602 points,  4 beta functions with: 
                l(1) =   0
                l(2) =   0
                l(3) =   1
                l(4) =   1

     atomic species   valence    mass     pseudopotential
        C              4.00    12.01070     C ( 1.00)

     24 Sym. Ops., with inversion, found



   Cartesian axes

     site n.     atom                  positions (alat units)
         1           C   tau(   1) = (  -0.0000000   0.5773503   4.2012448  )
         2           C   tau(   2) = (   0.5000000   0.2886751   4.2012448  )

     number of k points=    27  Methfessel-Paxton smearing, width (Ry)=  0.0100
                       cart. coord. in units 2pi/alat
        k(    1) = (   0.0000000   0.0000000   0.0000000), wk =   0.0088889
        k(    2) = (   0.0000000   0.0769800   0.0000000), wk =   0.0533333
        k(    3) = (   0.0000000   0.1539601   0.0000000), wk =   0.0533333
        k(    4) = (   0.0000000   0.2309401   0.0000000), wk =   0.0533333
        k(    5) = (   0.0000000   0.3079201   0.0000000), wk =   0.0533333
        k(    6) = (   0.0000000   0.3849002   0.0000000), wk =   0.0533333
        k(    7) = (   0.0000000   0.4618802   0.0000000), wk =   0.0533333
        k(    8) = (   0.0000000   0.5388603   0.0000000), wk =   0.0533333
        k(    9) = (   0.0666667   0.1154701   0.0000000), wk =   0.0533333
        k(   10) = (   0.0666667   0.1924501   0.0000000), wk =   0.1066667
        k(   11) = (   0.0666667   0.2694301   0.0000000), wk =   0.1066667
        k(   12) = (   0.0666667   0.3464102   0.0000000), wk =   0.1066667
        k(   13) = (   0.0666667   0.4233902   0.0000000), wk =   0.1066667
        k(   14) = (   0.0666667   0.5003702   0.0000000), wk =   0.1066667
        k(   15) = (   0.0666667   0.5773503   0.0000000), wk =   0.0533333
        k(   16) = (   0.1333333   0.2309401   0.0000000), wk =   0.0533333
        k(   17) = (   0.1333333   0.3079201   0.0000000), wk =   0.1066667
        k(   18) = (   0.1333333   0.3849002   0.0000000), wk =   0.1066667
        k(   19) = (   0.1333333   0.4618802   0.0000000), wk =   0.1066667
        k(   20) = (   0.1333333   0.5388603   0.0000000), wk =   0.1066667
        k(   21) = (   0.2000000   0.3464102   0.0000000), wk =   0.0533333
        k(   22) = (   0.2000000   0.4233902   0.0000000), wk =   0.1066667
        k(   23) = (   0.2000000   0.5003702   0.0000000), wk =   0.1066667
        k(   24) = (   0.2000000   0.5773503   0.0000000), wk =   0.0533333
        k(   25) = (   0.2666667   0.4618802   0.0000000), wk =   0.0533333
        k(   26) = (   0.2666667   0.5388603   0.0000000), wk =   0.1066667
        k(   27) = (   0.3333333   0.5773503   0.0000000), wk =   0.0177778

     Dense  grid:    38859 G-vectors     FFT dimensions: (  24,  24, 192)

     Estimated max dynamical RAM per process >       2.04 MB

     Estimated total dynamical RAM >      65.33 MB
 ----2D----2D----2D----2D----2D----2D----2D----2D----2D----2D----2D----2D
  The code is running with the 2D cutoff
  Please refer to:
  Sohier, T., Calandra, M., & Mauri, F. (2017), 
  Density functional perturbation theory for gated two-dimensional heterostructu
 res:
  Theoretical developments and application to flexural phonons in graphene.
  Physical Review B, 96(7), 75448. https://doi.org/10.1103/PhysRevB.96.075448
 ----2D----2D----2D----2D----2D----2D----2D----2D----2D----2D----2D----2D

     Initial potential from superposition of free atoms

     starting charge    7.98607, renormalised to    8.00000

     negative rho (up, down):  1.184E-04 0.000E+00
     Starting wfcs are random

     total cpu time spent up to now is        0.1 secs

     Self-consistent Calculation

     iteration #  1     ecut=    50.00 Ry     beta= 0.70
     Davidson diagonalization with overlap
     ethr =  1.00E-02,  avg # of iterations = 11.9

     negative rho (up, down):  1.669E-07 0.000E+00

     total cpu time spent up to now is        0.5 secs

     total energy              =     -22.75664823 Ry
     estimated scf accuracy    <       0.12218544 Ry

     iteration #  2     ecut=    50.00 Ry     beta= 0.70
     Davidson diagonalization with overlap
     ethr =  1.53E-03,  avg # of iterations =  2.4

     total cpu time spent up to now is        0.7 secs

     total energy              =     -22.77716491 Ry
     estimated scf accuracy    <       0.00201516 Ry

     iteration #  3     ecut=    50.00 Ry     beta= 0.70
     Davidson diagonalization with overlap
     ethr =  2.52E-05,  avg # of iterations =  9.7

     total cpu time spent up to now is        0.9 secs

     total energy              =     -22.78029511 Ry
     estimated scf accuracy    <       0.00013443 Ry

     iteration #  4     ecut=    50.00 Ry     beta= 0.70
     Davidson diagonalization with overlap
     c_bands:  1 eigenvalues not converged
     ethr =  1.68E-06,  avg # of iterations =  6.4

     total cpu time spent up to now is        1.1 secs

     total energy              =     -22.78032951 Ry
     estimated scf accuracy    <       0.00000018 Ry

     iteration #  5     ecut=    50.00 Ry     beta= 0.70
     Davidson diagonalization with overlap
     ethr =  2.30E-09,  avg # of iterations =  4.8

     total cpu time spent up to now is        1.3 secs

     total energy              =     -22.78033229 Ry
     estimated scf accuracy    <       0.00000003 Ry

     iteration #  6     ecut=    50.00 Ry     beta= 0.70
     Davidson diagonalization with overlap
     ethr =  3.40E-10,  avg # of iterations =  2.0

     total cpu time spent up to now is        1.4 secs

     End of self-consistent calculation

          k = 0.0000 0.0000 0.0000 (  4963 PWs)   bands (ev):

   -23.2694 -11.4894  -7.6230  -7.6230  -0.9589  -0.2001   0.5953   0.9489

          k = 0.0000 0.0770 0.0000 (  4947 PWs)   bands (ev):

   -23.1707 -11.3735  -8.0349  -7.8236  -0.8255  -0.0652   0.7313   1.0841

          k = 0.0000 0.1540 0.0000 (  4901 PWs)   bands (ev):

   -22.8755 -11.0280  -9.1178  -8.3307  -0.4254   0.3388   1.1394   1.4894

          k = 0.0000 0.2309 0.0000 (  4889 PWs)   bands (ev):

   -22.3860 -10.5921 -10.4616  -8.9694   0.2408   1.0091   1.8190   2.1611

          k = 0.0000 0.3079 0.0000 (  4883 PWs)   bands (ev):

   -21.7067 -12.2321  -9.6889  -9.5932   1.1703   1.6162   2.0061   2.5437

          k = 0.0000 0.3849 0.0000 (  4862 PWs)   bands (ev):

   -20.8466 -13.8945 -10.1134  -8.7405   0.0015   2.2012   2.4070   3.1676

          k = 0.0000 0.4619 0.0000 (  4828 PWs)   bands (ev):

   -19.8267 -15.4815 -10.4812  -7.6988  -1.5650   2.0093   3.8223   4.6254

          k = 0.0000 0.5389 0.0000 (  4806 PWs)   bands (ev):

   -18.7553 -16.8455 -10.6700  -6.8384  -2.7060   1.8912   5.5110   6.3181

          k = 0.0667 0.1155 0.0000 (  4925 PWs)   bands (ev):

   -22.9738 -11.1433  -8.7361  -8.2232  -0.5587   0.2042   1.0035   1.3543

          k = 0.0667 0.1925 0.0000 (  4900 PWs)   bands (ev):

   -22.5814 -10.6871  -9.9340  -8.8795  -0.0253   0.7419   1.5475   1.8938

          k = 0.0667 0.2694 0.0000 (  4881 PWs)   bands (ev):

   -21.9969 -11.4340 -10.0162  -9.5705   0.7732   1.5388   2.3468   2.3625

          k = 0.0667 0.3464 0.0000 (  4878 PWs)   bands (ev):

   -21.2268 -13.0543 -10.1767  -9.1516   0.7470   1.8326   2.6290   2.8338

          k = 0.0667 0.4234 0.0000 (  4850 PWs)   bands (ev):

   -20.2843 -14.6650 -10.6382  -8.1400  -0.8565   2.5512   3.1704   3.9549

          k = 0.0667 0.5004 0.0000 (  4822 PWs)   bands (ev):

   -19.2107 -16.1611 -10.9246  -7.1285  -2.2575   2.3830   4.7338   5.5238

          k = 0.0667 0.5774 0.0000 (  4826 PWs)   bands (ev):

   -18.4094 -17.1068 -11.0214  -6.6036  -2.9205   2.3230   6.4440   6.6105

          k = 0.1333 0.2309 0.0000 (  4901 PWs)   bands (ev):

   -22.0940 -11.0010 -10.1263  -9.7485   0.6408   1.4119   2.2279   2.5987

          k = 0.1333 0.3079 0.0000 (  4879 PWs)   bands (ev):

   -21.4183 -12.3250 -10.5820  -9.3590   1.2173   1.5707   2.3476   3.1788

          k = 0.1333 0.3849 0.0000 (  4852 PWs)   bands (ev):

   -20.5638 -13.8131 -11.2135  -8.4173  -0.2811   2.7590   3.5374   3.8856

          k = 0.1333 0.4619 0.0000 (  4849 PWs)   bands (ev):

   -19.5527 -15.3125 -11.6323  -7.3763  -1.7417   3.6490   4.2168   4.9601

          k = 0.1333 0.5389 0.0000 (  4851 PWs)   bands (ev):

   -18.4921 -16.6332 -11.8416  -6.4943  -2.8504   3.5346   5.8784   6.4980

          k = 0.2000 0.3464 0.0000 (  4843 PWs)   bands (ev):

   -20.6577 -13.3182 -11.6407  -8.5109  -0.0500   2.6291   3.3930   4.2655

          k = 0.2000 0.4234 0.0000 (  4860 PWs)   bands (ev):

   -19.7304 -14.5237 -12.4079  -7.5141  -1.3856   3.9388   4.6589   5.4104

          k = 0.2000 0.5004 0.0000 (  4849 PWs)   bands (ev):

   -18.6784 -15.8262 -12.8237  -6.4832  -2.6367   5.2028   5.5120   5.9657

          k = 0.2000 0.5774 0.0000 (  4854 PWs)   bands (ev):

   -17.8875 -16.7147 -12.9545  -5.9002  -3.2976   5.1559   6.5505   7.0517

          k = 0.2667 0.4619 0.0000 (  4861 PWs)   bands (ev):

   -18.7522 -15.3120 -13.4023  -6.4912  -2.5255   5.3471   5.7572   6.9271

          k = 0.2667 0.5389 0.0000 (  4850 PWs)   bands (ev):

   -17.7240 -16.2654 -13.9023  -5.5117  -3.5572   6.1107   6.7534   6.9944

          k = 0.3333 0.5774 0.0000 (  4842 PWs)   bands (ev):

   -16.8496 -16.8496 -14.3909  -4.5204  -4.5204   5.9551   7.5819   7.5821

     the Fermi energy is    -4.5204 ev

!    total energy              =     -22.78033229 Ry
     estimated scf accuracy    <          4.6E-10 Ry
     smearing contrib. (-TS)   =      -0.00005015 Ry
     internal energy E=F+TS    =     -22.78028214 Ry

     The total energy is F=E-TS. E is the sum of the following terms:
     one-electron contribution =    -361.23659909 Ry
     hartree contribution      =     181.17389705 Ry
     xc contribution           =      -6.86840714 Ry
     ewald contribution        =     164.15082703 Ry

     convergence has been achieved in   6 iterations

     Forces acting on atoms (cartesian axes, Ry/au):

     atom    1 type  1   force =    -0.00000000   -0.00000000    0.00000000
     atom    2 type  1   force =     0.00000000    0.00000000    0.00000000

     Total force =     0.000000     Total SCF correction =     0.000000


     Computing stress (Cartesian axis) and pressure

          total   stress  (Ry/bohr**3)                   (kbar)     P=      -51.26
  -0.00047380   0.00000000  -0.00000000          -69.70        0.00       -0.00
   0.00000000  -0.00047380   0.00000000            0.00      -69.70        0.00
   0.00000000   0.00000000  -0.00009771            0.00        0.00      -14.37


     BFGS Geometry Optimization
     Energy error            =      0.0E+00
     Gradient error          =      1.7E-26
     Cell gradient error     =      4.7E-04


     number of scf cycles    =   1
     number of bfgs steps    =   0

     enthalpy new            =     -22.7803322950 Ry

     new trust radius        =       0.0676248466 bohr
     new conv_thr            =       0.0000000100 Ry

     new unit-cell volume =    795.66425 a.u.^3 (   117.90528 Ang^3 )
     density =      0.33831 g/cm^3

CELL_PARAMETERS (alat=  4.82000000)
   0.988154963  -0.000000000   0.000000000
  -0.494077481   0.855767300   0.000000000
   0.000000000   0.000000000   8.402489627

ATOMIC_POSITIONS (crystal)
C             0.3333333333        0.6666666667        0.5000000000
C             0.6666666667        0.3333333333        0.5000000000



     Writing output data file ./work/LiC482.save/
     NEW-OLD atomic charge density approx. for the potential

     negative rho (up, down):  5.166E-06 0.000E+00
     extrapolated charge    7.80739, renormalised to    8.00000

     total cpu time spent up to now is        1.5 secs

     Self-consistent Calculation

     iteration #  1     ecut=    50.00 Ry     beta= 0.70
     Davidson diagonalization with overlap
     c_bands:  1 eigenvalues not converged
     c_bands:  1 eigenvalues not converged
     c_bands:  2 eigenvalues not converged
     c_bands:  1 eigenvalues not converged
     c_bands:  4 eigenvalues not converged
     c_bands:  1 eigenvalues not converged
     c_bands:  2 eigenvalues not converged
     c_bands:  1 eigenvalues not converged
     c_bands:  1 eigenvalues not converged
     c_bands:  2 eigenvalues not converged
     c_bands:  1 eigenvalues not converged
     c_bands:  1 eigenvalues not converged
     ethr =  1.00E-06,  avg # of iterations = 17.0

     negative rho (up, down):  3.673E-07 0.000E+00

     total cpu time spent up to now is        2.0 secs

     total energy              =     -22.77185616 Ry
     estimated scf accuracy    <       0.00870536 Ry

     iteration #  2     ecut=    50.00 Ry     beta= 0.70
     Davidson diagonalization with overlap
     ethr =  1.09E-04,  avg # of iterations = 10.3

     negative rho (up, down):  6.921E-08 0.000E+00

     total cpu time spent up to now is        2.2 secs

     total energy              =     -22.78866684 Ry
     estimated scf accuracy    <       0.00788324 Ry

     iteration #  3     ecut=    50.00 Ry     beta= 0.70
     Davidson diagonalization with overlap
     ethr =  9.85E-05,  avg # of iterations =  1.0

     total cpu time spent up to now is        2.4 secs

     total energy              =     -22.78801628 Ry
     estimated scf accuracy    <       0.00173429 Ry

     iteration #  4     ecut=    50.00 Ry     beta= 0.70
     Davidson diagonalization with overlap
     ethr =  2.17E-05,  avg # of iterations =  3.2

     total cpu time spent up to now is        2.5 secs

     total energy              =     -22.78824773 Ry
     estimated scf accuracy    <       0.00003202 Ry

     iteration #  5     ecut=    50.00 Ry     beta= 0.70
     Davidson diagonalization with overlap
     c_bands:  1 eigenvalues not converged
     ethr =  4.00E-07,  avg # of iterations =  5.2

     total cpu time spent up to now is        2.7 secs

     total energy              =     -22.78825426 Ry
     estimated scf accuracy    <       0.00002262 Ry

     iteration #  6     ecut=    50.00 Ry     beta= 0.70
     Davidson diagonalization with overlap
     ethr =  2.83E-07,  avg # of iterations =  1.4

     total cpu time spent up to now is        2.8 secs

     total energy              =     -22.78824369 Ry
     estimated scf accuracy    <       0.00002404 Ry

     iteration #  7     ecut=    50.00 Ry     beta= 0.70
     Davidson diagonalization with overlap
     ethr =  2.83E-07,  avg # of iterations =  2.2

     negative rho (up, down):  1.121E-07 0.000E+00

     total cpu time spent up to now is        2.9 secs

     total energy              =     -22.78826085 Ry
     estimated scf accuracy    <       0.00001727 Ry

     iteration #  8     ecut=    50.00 Ry     beta= 0.70
     Davidson diagonalization with overlap
     ethr =  2.16E-07,  avg # of iterations =  2.1

     total cpu time spent up to now is        3.0 secs

     total energy              =     -22.78823641 Ry
     estimated scf accuracy    <       0.00011364 Ry

     iteration #  9     ecut=    50.00 Ry     beta= 0.70
     Davidson diagonalization with overlap
     ethr =  2.16E-07,  avg # of iterations =  2.2

     total cpu time spent up to now is        3.2 secs

     total energy              =     -22.78824477 Ry
     estimated scf accuracy    <       0.00000076 Ry

     iteration # 10     ecut=    50.00 Ry     beta= 0.70
     Davidson diagonalization with overlap
     ethr =  9.56E-09,  avg # of iterations =  3.0

     total cpu time spent up to now is        3.3 secs

     total energy              =     -22.78824440 Ry
     estimated scf accuracy    <       0.00000468 Ry

     iteration # 11     ecut=    50.00 Ry     beta= 0.70
     Davidson diagonalization with overlap
     ethr =  9.56E-09,  avg # of iterations =  2.0

     total cpu time spent up to now is        3.4 secs

     total energy              =     -22.78824434 Ry
     estimated scf accuracy    <       0.00000083 Ry

     iteration # 12     ecut=    50.00 Ry     beta= 0.70
     Davidson diagonalization with overlap
     ethr =  9.56E-09,  avg # of iterations =  1.0

     total cpu time spent up to now is        3.5 secs

     total energy              =     -22.78824420 Ry
     estimated scf accuracy    <       0.00000028 Ry

     iteration # 13     ecut=    50.00 Ry     beta= 0.70
     Davidson diagonalization with overlap
     ethr =  3.53E-09,  avg # of iterations =  2.0

     total cpu time spent up to now is        3.7 secs

     total energy              =     -22.78824424 Ry
     estimated scf accuracy    <       0.00000019 Ry

     iteration # 14     ecut=    50.00 Ry     beta= 0.70
     Davidson diagonalization with overlap
     ethr =  2.42E-09,  avg # of iterations =  2.0

     total cpu time spent up to now is        3.8 secs

     End of self-consistent calculation

          k = 0.0000 0.0000 0.0000 (  4963 PWs)   bands (ev):

   -23.4500 -11.6213  -7.5283  -7.5283  -0.9659  -0.2000   0.5943   0.9480

          k = 0.0000 0.0779 0.0000 (  4947 PWs)   bands (ev):

   -23.3492 -11.5020  -7.9439  -7.7364  -0.8294  -0.0618   0.7336   1.0865

          k = 0.0000 0.1558 0.0000 (  4901 PWs)   bands (ev):

   -23.0475 -11.1462  -9.0402  -8.2623  -0.4198   0.3523   1.1515   1.5018

          k = 0.0000 0.2337 0.0000 (  4889 PWs)   bands (ev):

   -22.5472 -10.5626 -10.5376  -8.9233   0.2622   1.0396   1.8475   2.1907

          k = 0.0000 0.3116 0.0000 (  4883 PWs)   bands (ev):

   -21.8527 -12.2075  -9.7658  -9.5680   1.2141   1.8460   2.1303   2.8099

          k = 0.0000 0.3895 0.0000 (  4862 PWs)   bands (ev):

   -20.9724 -13.9037 -10.1050  -8.7869   0.2331   2.4062   2.6947   3.2537

          k = 0.0000 0.4674 0.0000 (  4828 PWs)   bands (ev):

   -19.9255 -15.5280 -10.4845  -7.7098  -1.3955   2.4345   3.9329   4.7490

          k = 0.0000 0.5453 0.0000 (  4806 PWs)   bands (ev):

   -18.8102 -16.9414 -10.6792  -6.8166  -2.5835   2.3211   5.6623   6.4882

          k = 0.0675 0.1169 0.0000 (  4925 PWs)   bands (ev):

   -23.1479 -11.2649  -8.6518  -8.1511  -0.5563   0.2143   1.0122   1.3635

          k = 0.0675 0.1948 0.0000 (  4900 PWs)   bands (ev):

   -22.7469 -10.7949  -9.8653  -8.8305  -0.0102   0.7655   1.5694   1.9164

          k = 0.0675 0.2727 0.0000 (  4881 PWs)   bands (ev):

   -22.1495 -11.3912 -10.1034  -9.5433   0.8074   1.5842   2.4044   2.6463

          k = 0.0675 0.3506 0.0000 (  4878 PWs)   bands (ev):

   -21.3617 -13.0434 -10.1676  -9.2114   1.0109   1.8927   2.7024   3.2479

          k = 0.0675 0.4285 0.0000 (  4850 PWs)   bands (ev):

   -20.3960 -14.6896 -10.6426  -8.1667  -0.6560   2.9636   3.2815   4.0612

          k = 0.0675 0.5064 0.0000 (  4822 PWs)   bands (ev):

   -19.2898 -16.2264 -10.9373  -7.1191  -2.1131   2.8183   4.8661   5.6721

          k = 0.0675 0.5843 0.0000 (  4826 PWs)   bands (ev):

   -18.4385 -17.2249 -11.0370  -6.5728  -2.8042   2.7604   6.6236   6.7869

          k = 0.1349 0.2337 0.0000 (  4901 PWs)   bands (ev):

   -22.2487 -10.9424 -10.2169  -9.7300   0.6719   1.4523   2.2661   2.6061

          k = 0.1349 0.3116 0.0000 (  4879 PWs)   bands (ev):

   -21.5578 -12.2886 -10.5877  -9.4257   1.5072   1.6242   2.4127   3.2404

          k = 0.1349 0.3895 0.0000 (  4852 PWs)   bands (ev):

   -20.6831 -13.8099 -11.2334  -8.4537  -0.0503   2.8416   3.6326   4.3187

          k = 0.1349 0.4674 0.0000 (  4849 PWs)   bands (ev):

   -19.6454 -15.3468 -11.6608  -7.3772  -1.5684   4.0839   4.3548   5.0938

          k = 0.1349 0.5453 0.0000 (  4851 PWs)   bands (ev):

   -18.5426 -16.7157 -11.8744  -6.4621  -2.7220   3.9919   6.0406   6.6817

          k = 0.2024 0.3506 0.0000 (  4843 PWs)   bands (ev):

   -20.7795 -13.2880 -11.6836  -8.5506   0.1946   2.7083   3.4843   4.3536

          k = 0.2024 0.4285 0.0000 (  4860 PWs)   bands (ev):

   -19.8292 -14.5188 -12.4692  -7.5208  -1.1898   4.0506   4.7847   5.7319

          k = 0.2024 0.5064 0.0000 (  4849 PWs)   bands (ev):

   -18.7460 -15.8617 -12.8892  -6.4537  -2.4881   5.5780   5.7749   6.1325

          k = 0.2024 0.5843 0.0000 (  4854 PWs)   bands (ev):

   -17.9108 -16.7983 -13.0209  -5.8483  -3.1755   5.6428   6.7364   7.2649

          k = 0.2699 0.4674 0.0000 (  4861 PWs)   bands (ev):

   -18.8247 -15.3056 -13.5061  -6.4634  -2.3666   5.4966   5.9158   7.2067

          k = 0.2699 0.5453 0.0000 (  4850 PWs)   bands (ev):

   -17.7605 -16.2881 -14.0210  -5.4494  -3.4338   6.2702   7.0539   7.4057

          k = 0.3373 0.5843 0.0000 (  4842 PWs)   bands (ev):

   -16.8611 -16.8611 -14.5488  -4.4258  -4.4258   6.1018   7.9676   7.9676

     the Fermi energy is    -4.4258 ev

!    total energy              =     -22.78824426 Ry
     estimated scf accuracy    <          1.3E-09 Ry
     smearing contrib. (-TS)   =      -0.00005015 Ry
     internal energy E=F+TS    =     -22.78819411 Ry

     The total energy is F=E-TS. E is the sum of the following terms:
     one-electron contribution =    -370.04163693 Ry
     hartree contribution      =     185.59775013 Ry
     xc contribution           =      -6.91761640 Ry
     ewald contribution        =     168.57330909 Ry

     convergence has been achieved in  14 iterations

     Forces acting on atoms (cartesian axes, Ry/au):

     atom    1 type  1   force =     0.00000000    0.00000000    0.00000000
     atom    2 type  1   force =     0.00000000    0.00000000    0.00000000

     Total force =     0.000000     Total SCF correction =     0.000000


     Computing stress (Cartesian axis) and pressure

          total   stress  (Ry/bohr**3)                   (kbar)     P=      -38.88
  -0.00034806   0.00000000  -0.00000000          -51.20        0.00       -0.00
   0.00000000  -0.00034806   0.00000000            0.00      -51.20        0.00
   0.00000000  -0.00000000  -0.00009677            0.00       -0.00      -14.24

     Energy error            =      7.9E-03
     Gradient error          =      0.0E+00
     Cell gradient error     =      3.5E-04


     number of scf cycles    =   2
     number of bfgs steps    =   1

     enthalpy old            =     -22.7803322950 Ry
     enthalpy new            =     -22.7882442608 Ry

     CASE: enthalpy_new < enthalpy_old

     new trust radius        =       0.0743873313 bohr
     new conv_thr            =            1.0E-10 Ry

     new unit-cell volume =    774.81976 a.u.^3 (   114.81644 Ang^3 )
     density =      0.34741 g/cm^3

CELL_PARAMETERS (alat=  4.82000000)
   0.975125421  -0.000000000   0.000000000
  -0.487562711   0.844483387   0.000000000
   0.000000000   0.000000000   8.402489627

ATOMIC_POSITIONS (crystal)
C             0.3333333333        0.6666666667        0.5000000000
C             0.6666666667        0.3333333333        0.5000000000



     Writing output data file ./work/LiC482.save/
     NEW-OLD atomic charge density approx. for the potential

     negative rho (up, down):  3.433E-06 0.000E+00
     extrapolated charge    7.78516, renormalised to    8.00000

     total cpu time spent up to now is        3.9 secs

     Self-consistent Calculation

     iteration #  1     ecut=    50.00 Ry     beta= 0.70
     Davidson diagonalization with overlap
     c_bands:  1 eigenvalues not converged
     c_bands:  2 eigenvalues not converged
     c_bands:  1 eigenvalues not converged
     c_bands:  2 eigenvalues not converged
     c_bands:  1 eigenvalues not converged
     c_bands:  1 eigenvalues not converged
     c_bands:  2 eigenvalues not converged
     c_bands:  2 eigenvalues not converged
     c_bands:  1 eigenvalues not converged
     c_bands:  2 eigenvalues not converged
     c_bands:  1 eigenvalues not converged
     c_bands:  1 eigenvalues not converged
     ethr =  1.00E-06,  avg # of iterations = 17.3

     negative rho (up, down):  1.616E-07 0.000E+00

     total cpu time spent up to now is        4.3 secs

     total energy              =     -22.77355934 Ry
     estimated scf accuracy    <       0.01074476 Ry

     iteration #  2     ecut=    50.00 Ry     beta= 0.70
     Davidson diagonalization with overlap
     ethr =  1.34E-04,  avg # of iterations =  9.8

     negative rho (up, down):  2.357E-08 0.000E+00

     total cpu time spent up to now is        4.6 secs

     total energy              =     -22.79442813 Ry
     estimated scf accuracy    <       0.00983687 Ry

     iteration #  3     ecut=    50.00 Ry     beta= 0.70
     Davidson diagonalization with overlap
     ethr =  1.23E-04,  avg # of iterations =  1.1

     total cpu time spent up to now is        4.7 secs

     total energy              =     -22.79361573 Ry
     estimated scf accuracy    <       0.00216233 Ry

     iteration #  4     ecut=    50.00 Ry     beta= 0.70
     Davidson diagonalization with overlap
     ethr =  2.70E-05,  avg # of iterations =  3.0

     total cpu time spent up to now is        4.8 secs

     total energy              =     -22.79390533 Ry
     estimated scf accuracy    <       0.00003782 Ry

     iteration #  5     ecut=    50.00 Ry     beta= 0.70
     Davidson diagonalization with overlap
     ethr =  4.73E-07,  avg # of iterations =  4.3

     total cpu time spent up to now is        5.0 secs

     total energy              =     -22.79391804 Ry
     estimated scf accuracy    <       0.00002022 Ry

     iteration #  6     ecut=    50.00 Ry     beta= 0.70
     Davidson diagonalization with overlap
     ethr =  2.53E-07,  avg # of iterations =  1.0

     total cpu time spent up to now is        5.1 secs

     total energy              =     -22.79390286 Ry
     estimated scf accuracy    <       0.00003118 Ry

     iteration #  7     ecut=    50.00 Ry     beta= 0.70
     Davidson diagonalization with overlap
     ethr =  2.53E-07,  avg # of iterations =  2.0

     total cpu time spent up to now is        5.2 secs

     total energy              =     -22.79390480 Ry
     estimated scf accuracy    <       0.00000645 Ry

     iteration #  8     ecut=    50.00 Ry     beta= 0.70
     Davidson diagonalization with overlap
     ethr =  8.06E-08,  avg # of iterations =  1.0

     total cpu time spent up to now is        5.3 secs

     total energy              =     -22.79390467 Ry
     estimated scf accuracy    <       0.00000286 Ry

     iteration #  9     ecut=    50.00 Ry     beta= 0.70
     Davidson diagonalization with overlap
     ethr =  3.57E-08,  avg # of iterations =  1.0

     total cpu time spent up to now is        5.4 secs

     total energy              =     -22.79390460 Ry
     estimated scf accuracy    <       0.00000049 Ry

     iteration # 10     ecut=    50.00 Ry     beta= 0.70
     Davidson diagonalization with overlap
     ethr =  6.14E-09,  avg # of iterations =  2.1

     total cpu time spent up to now is        5.5 secs

     total energy              =     -22.79390467 Ry
     estimated scf accuracy    <       0.00000002 Ry

     iteration # 11     ecut=    50.00 Ry     beta= 0.70
     Davidson diagonalization with overlap
     ethr =  2.58E-10,  avg # of iterations =  2.6

     total cpu time spent up to now is        5.7 secs

     total energy              =     -22.79390468 Ry
     estimated scf accuracy    <          5.6E-09 Ry

     iteration # 12     ecut=    50.00 Ry     beta= 0.70
     Davidson diagonalization with overlap
     ethr =  7.01E-11,  avg # of iterations =  1.1

     total cpu time spent up to now is        5.8 secs

     total energy              =     -22.79390468 Ry
     estimated scf accuracy    <          3.5E-09 Ry

     iteration # 13     ecut=    50.00 Ry     beta= 0.70
     Davidson diagonalization with overlap
     ethr =  4.35E-11,  avg # of iterations =  2.0

     total cpu time spent up to now is        5.9 secs

     total energy              =     -22.79390468 Ry
     estimated scf accuracy    <          1.7E-10 Ry

     iteration # 14     ecut=    50.00 Ry     beta= 0.70
     Davidson diagonalization with overlap
     ethr =  2.13E-12,  avg # of iterations =  2.0

     total cpu time spent up to now is        6.0 secs

     End of self-consistent calculation

          k = 0.0000 0.0000 0.0000 (  4963 PWs)   bands (ev):

   -23.6514 -11.7710  -7.4142  -7.4142  -0.9734  -0.1996   0.5938   0.9475

          k = 0.0000 0.0789 0.0000 (  4947 PWs)   bands (ev):

   -23.5482 -11.6478  -7.8346  -7.6311  -0.8333  -0.0576   0.7368   1.0899

          k = 0.0000 0.1579 0.0000 (  4901 PWs)   bands (ev):

   -23.2392 -11.2801  -8.9472  -8.1786  -0.4129   0.3680   1.1659   1.5167

          k = 0.0000 0.2368 0.0000 (  4889 PWs)   bands (ev):

   -22.7268 -10.6769 -10.4716  -8.8653   0.2872   1.0745   1.8808   2.2252

          k = 0.0000 0.3158 0.0000 (  4883 PWs)   bands (ev):

   -22.0152 -12.1758  -9.8527  -9.5338   1.2646   1.9982   2.3816   2.8775

          k = 0.0000 0.3947 0.0000 (  4862 PWs)   bands (ev):

   -21.1122 -13.9105 -10.0903  -8.8390   0.4975   2.5062   3.1559   3.3527

          k = 0.0000 0.4737 0.0000 (  4828 PWs)   bands (ev):

   -20.0352 -15.5767 -10.4831  -7.7212  -1.2022   2.9187   4.0617   4.8902

          k = 0.0000 0.5526 0.0000 (  4806 PWs)   bands (ev):

   -18.8701 -17.0461 -10.6847  -6.7903  -2.4443   2.8132   5.8358   6.6824

          k = 0.0684 0.1184 0.0000 (  4925 PWs)   bands (ev):

   -23.3421 -11.4028  -8.5510  -8.0633  -0.5530   0.2262   1.0229   1.3745

          k = 0.0684 0.1974 0.0000 (  4900 PWs)   bands (ev):

   -22.9314 -10.9171  -9.7831  -8.7691   0.0076   0.7927   1.5952   1.9428

          k = 0.0684 0.2763 0.0000 (  4881 PWs)   bands (ev):

   -22.3193 -11.3389 -10.2019  -9.5068   0.8470   1.6357   2.4529   2.7761

          k = 0.0684 0.3552 0.0000 (  4878 PWs)   bands (ev):

   -21.5118 -13.0276 -10.1518  -9.2789   1.3121   1.9618   2.7872   3.5800

          k = 0.0684 0.4342 0.0000 (  4850 PWs)   bands (ev):

   -20.5203 -14.7139 -10.6423  -8.1961  -0.4267   3.2983   3.5441   4.1827

          k = 0.0684 0.5131 0.0000 (  4822 PWs)   bands (ev):

   -19.3776 -16.2964 -10.9465  -7.1070  -1.9484   3.3153   5.0184   5.8416

          k = 0.0684 0.5921 0.0000 (  4826 PWs)   bands (ev):

   -18.4658 -17.3584 -11.0494  -6.5362  -2.6720   3.2609   6.8289   6.9889

          k = 0.1367 0.2368 0.0000 (  4901 PWs)   bands (ev):

   -22.4211 -10.8720 -10.3194  -9.7036   0.7079   1.4987   2.3106   2.6516

          k = 0.1367 0.3158 0.0000 (  4879 PWs)   bands (ev):

   -21.7130 -12.2438 -10.5886  -9.5009   1.6858   1.8389   2.4881   3.3114

          k = 0.1367 0.3947 0.0000 (  4852 PWs)   bands (ev):

   -20.8157 -13.8032 -11.2500  -8.4942   0.2141   2.9365   3.7418   4.5878

          k = 0.1367 0.4737 0.0000 (  4849 PWs)   bands (ev):

   -19.7481 -15.3826 -11.6871  -7.3772  -1.3700   4.4174   4.6742   5.2469

          k = 0.1367 0.5526 0.0000 (  4851 PWs)   bands (ev):

   -18.5974 -16.8062 -11.9057  -6.4239  -2.5754   4.5136   6.2265   6.8918

          k = 0.2051 0.3552 0.0000 (  4843 PWs)   bands (ev):

   -20.9149 -13.2499 -11.7272  -8.5948   0.4753   2.7994   3.5887   4.4549

          k = 0.2051 0.4342 0.0000 (  4860 PWs)   bands (ev):

   -19.9388 -14.5102 -12.5327  -7.5273  -0.9650   4.1788   4.9286   5.8781

          k = 0.2051 0.5131 0.0000 (  4849 PWs)   bands (ev):

   -18.8205 -15.8997 -12.9565  -6.4189  -2.3174   5.7919   6.2858   6.3237

          k = 0.2051 0.5921 0.0000 (  4854 PWs)   bands (ev):

   -17.9318 -16.8944 -13.0888  -5.7874  -3.0354   6.1955   6.9505   7.5052

          k = 0.2735 0.4737 0.0000 (  4861 PWs)   bands (ev):

   -18.9046 -15.2939 -13.6188  -6.4304  -2.1837   5.6672   6.0978   7.3909

          k = 0.2735 0.5526 0.0000 (  4850 PWs)   bands (ev):

   -17.7988 -16.3116 -14.1490  -5.3769  -3.2917   6.4534   7.3089   7.9459

          k = 0.3418 0.5921 0.0000 (  4842 PWs)   bands (ev):

   -16.8692 -16.8692 -14.7261  -4.3164  -4.3164   6.2703   8.3767   8.3767

     the Fermi energy is    -4.3164 ev

!    total energy              =     -22.79390468 Ry
     estimated scf accuracy    <          2.9E-12 Ry
     smearing contrib. (-TS)   =      -0.00005015 Ry
     internal energy E=F+TS    =     -22.79385453 Ry

     The total energy is F=E-TS. E is the sum of the following terms:
     one-electron contribution =    -380.10851162 Ry
     hartree contribution      =     190.65613795 Ry
     xc contribution           =      -6.97341731 Ry
     ewald contribution        =     173.63193645 Ry

     convergence has been achieved in  14 iterations

     Forces acting on atoms (cartesian axes, Ry/au):

     atom    1 type  1   force =     0.00000000    0.00000000    0.00000000
     atom    2 type  1   force =    -0.00000000   -0.00000000    0.00000000

     Total force =     0.000000     Total SCF correction =     0.000000


     Computing stress (Cartesian axis) and pressure

          total   stress  (Ry/bohr**3)                   (kbar)     P=      -23.47
  -0.00019137  -0.00000000   0.00000000          -28.15       -0.00        0.00
  -0.00000000  -0.00019137   0.00000000           -0.00      -28.15        0.00
   0.00000000   0.00000000  -0.00009587            0.00        0.00      -14.10

     Energy error            =      5.7E-03
     Gradient error          =      1.8E-26
     Cell gradient error     =      1.9E-04


     number of scf cycles    =   3
     number of bfgs steps    =   2

     enthalpy old            =     -22.7882442608 Ry
     enthalpy new            =     -22.7939046803 Ry

     CASE: enthalpy_new < enthalpy_old

     new trust radius        =       0.0882338286 bohr
     new conv_thr            =            1.0E-10 Ry

     new unit-cell volume =    750.45399 a.u.^3 (   111.20581 Ang^3 )
     density =      0.35869 g/cm^3

CELL_PARAMETERS (alat=  4.82000000)
   0.959670555  -0.000000000   0.000000000
  -0.479835277   0.831099080   0.000000000
   0.000000000   0.000000000   8.402489627

ATOMIC_POSITIONS (crystal)
C             0.3333333333        0.6666666667        0.5000000000
C             0.6666666667        0.3333333333        0.5000000000



     Writing output data file ./work/LiC482.save/
     NEW-OLD atomic charge density approx. for the potential

     negative rho (up, down):  4.328E-06 0.000E+00
     extrapolated charge    7.74071, renormalised to    8.00000

     total cpu time spent up to now is        6.1 secs

     Self-consistent Calculation

     iteration #  1     ecut=    50.00 Ry     beta= 0.70
     Davidson diagonalization with overlap
     c_bands:  2 eigenvalues not converged
     c_bands:  1 eigenvalues not converged
     c_bands:  1 eigenvalues not converged
     c_bands:  3 eigenvalues not converged
     c_bands:  2 eigenvalues not converged
     c_bands:  1 eigenvalues not converged
     c_bands:  1 eigenvalues not converged
     c_bands:  3 eigenvalues not converged
     c_bands:  1 eigenvalues not converged
     c_bands:  1 eigenvalues not converged
     c_bands:  1 eigenvalues not converged
     c_bands:  2 eigenvalues not converged
     c_bands:  1 eigenvalues not converged
     c_bands:  1 eigenvalues not converged
     ethr =  1.00E-06,  avg # of iterations = 18.3

     negative rho (up, down):  2.849E-07 0.000E+00

     total cpu time spent up to now is        6.6 secs

     total energy              =     -22.76699634 Ry
     estimated scf accuracy    <       0.01524260 Ry

     iteration #  2     ecut=    50.00 Ry     beta= 0.70
     Davidson diagonalization with overlap
     ethr =  1.91E-04,  avg # of iterations = 10.1

     negative rho (up, down):  4.389E-08 0.000E+00

     total cpu time spent up to now is        6.9 secs

     total energy              =     -22.79677023 Ry
     estimated scf accuracy    <       0.01413767 Ry

     iteration #  3     ecut=    50.00 Ry     beta= 0.70
     Davidson diagonalization with overlap
     ethr =  1.77E-04,  avg # of iterations =  1.3

     total cpu time spent up to now is        7.0 secs

     total energy              =     -22.79564839 Ry
     estimated scf accuracy    <       0.00309382 Ry

     iteration #  4     ecut=    50.00 Ry     beta= 0.70
     Davidson diagonalization with overlap
     ethr =  3.87E-05,  avg # of iterations =  3.9

     total cpu time spent up to now is        7.1 secs

     total energy              =     -22.79602866 Ry
     estimated scf accuracy    <       0.00007212 Ry

     iteration #  5     ecut=    50.00 Ry     beta= 0.70
     Davidson diagonalization with overlap
     ethr =  9.01E-07,  avg # of iterations =  4.8

     total cpu time spent up to now is        7.3 secs

     total energy              =     -22.79605486 Ry
     estimated scf accuracy    <       0.00001618 Ry

     iteration #  6     ecut=    50.00 Ry     beta= 0.70
     Davidson diagonalization with overlap
     ethr =  2.02E-07,  avg # of iterations =  1.7

     total cpu time spent up to now is        7.4 secs

     total energy              =     -22.79603184 Ry
     estimated scf accuracy    <       0.00004176 Ry

     iteration #  7     ecut=    50.00 Ry     beta= 0.70
     Davidson diagonalization with overlap
     ethr =  2.02E-07,  avg # of iterations =  2.0

     total cpu time spent up to now is        7.5 secs

     total energy              =     -22.79603745 Ry
     estimated scf accuracy    <       0.00000164 Ry

     iteration #  8     ecut=    50.00 Ry     beta= 0.70
     Davidson diagonalization with overlap
     ethr =  2.05E-08,  avg # of iterations =  1.1

     total cpu time spent up to now is        7.6 secs

     total energy              =     -22.79603734 Ry
     estimated scf accuracy    <       0.00000115 Ry

     iteration #  9     ecut=    50.00 Ry     beta= 0.70
     Davidson diagonalization with overlap
     ethr =  1.43E-08,  avg # of iterations =  2.0

     total cpu time spent up to now is        7.8 secs

     total energy              =     -22.79603742 Ry
     estimated scf accuracy    <       0.00000010 Ry

     iteration # 10     ecut=    50.00 Ry     beta= 0.70
     Davidson diagonalization with overlap
     ethr =  1.20E-09,  avg # of iterations =  2.1

     total cpu time spent up to now is        7.9 secs

     total energy              =     -22.79603744 Ry
     estimated scf accuracy    <       0.00000003 Ry

     iteration # 11     ecut=    50.00 Ry     beta= 0.70
     Davidson diagonalization with overlap
     ethr =  4.23E-10,  avg # of iterations =  2.0

     total cpu time spent up to now is        8.0 secs

     total energy              =     -22.79603744 Ry
     estimated scf accuracy    <          3.3E-10 Ry

     iteration # 12     ecut=    50.00 Ry     beta= 0.70
     Davidson diagonalization with overlap
     ethr =  4.16E-12,  avg # of iterations =  3.6

     total cpu time spent up to now is        8.2 secs

     total energy              =     -22.79603744 Ry
     estimated scf accuracy    <          1.7E-09 Ry

     iteration # 13     ecut=    50.00 Ry     beta= 0.70
     Davidson diagonalization with overlap
     ethr =  4.16E-12,  avg # of iterations =  2.0

     total cpu time spent up to now is        8.3 secs

     End of self-consistent calculation

          k = 0.0000 0.0000 0.0000 (  4963 PWs)   bands (ev):

   -23.8946 -11.9555  -7.2656  -7.2656  -0.9822  -0.1992   0.5932   0.9468

          k = 0.0000 0.0802 0.0000 (  4947 PWs)   bands (ev):

   -23.7884 -11.8274  -7.6927  -7.4934  -0.8376  -0.0525   0.7409   1.0939

          k = 0.0000 0.1604 0.0000 (  4901 PWs)   bands (ev):

   -23.4707 -11.4452  -8.8266  -8.0681  -0.4039   0.3873   1.1839   1.5349

          k = 0.0000 0.2406 0.0000 (  4889 PWs)   bands (ev):

   -22.9435 -10.8175 -10.3853  -8.7868   0.3186   1.1177   1.9221   2.2675

          k = 0.0000 0.3209 0.0000 (  4883 PWs)   bands (ev):

   -22.2111 -12.1322  -9.9594  -9.4852   1.3277   2.1056   2.7671   2.9536

          k = 0.0000 0.4011 0.0000 (  4862 PWs)   bands (ev):

   -21.2808 -13.9140 -10.0657  -8.9026   0.8242   2.6149   3.4755   3.7366

          k = 0.0000 0.4813 0.0000 (  4828 PWs)   bands (ev):

   -20.1676 -15.6311 -10.4752  -7.7343  -0.9636   3.5111   4.2290   5.0648

          k = 0.0000 0.5615 0.0000 (  4806 PWs)   bands (ev):

   -18.9419 -17.1688 -10.6852  -6.7561  -2.2731   3.4235   6.0517   6.9223

          k = 0.0695 0.1203 0.0000 (  4925 PWs)   bands (ev):

   -23.5765 -11.5727  -8.4204  -7.9475  -0.5484   0.2408   1.0362   1.3880

          k = 0.0695 0.2005 0.0000 (  4900 PWs)   bands (ev):

   -23.1540 -11.0674  -9.6765  -8.6863   0.0301   0.8262   1.6271   1.9753

          k = 0.0695 0.2808 0.0000 (  4881 PWs)   bands (ev):

   -22.5243 -11.2700 -10.3231  -9.4549   0.8966   1.6986   2.5129   2.8469

          k = 0.0695 0.3610 0.0000 (  4878 PWs)   bands (ev):

   -21.6928 -13.0038 -10.1256  -9.3614   1.6832   2.0478   2.8940   3.6893

          k = 0.0695 0.4412 0.0000 (  4850 PWs)   bands (ev):

   -20.6700 -14.7390 -10.6352  -8.2315  -0.1432   3.4661   4.1139   4.3332

          k = 0.0695 0.5214 0.0000 (  4822 PWs)   bands (ev):

   -19.4835 -16.3767 -10.9512  -7.0908  -1.7452   3.9291   5.2096   6.0512

          k = 0.0695 0.6016 0.0000 (  4826 PWs)   bands (ev):

   -18.4917 -17.5227 -11.0581  -6.4891  -2.5095   3.8813   7.0837   7.2396

          k = 0.1389 0.2406 0.0000 (  4901 PWs)   bands (ev):

   -22.6290 -10.7803 -10.4455  -9.6644   0.7531   1.5560   2.3658   2.7079

          k = 0.1389 0.3209 0.0000 (  4879 PWs)   bands (ev):

   -21.9001 -12.1845 -10.5827  -9.5931   1.7628   2.2464   2.5858   3.3994

          k = 0.1389 0.4011 0.0000 (  4852 PWs)   bands (ev):

   -20.9755 -13.7912 -11.2629  -8.5434   0.5422   3.0545   3.8769   4.7244

          k = 0.1389 0.4813 0.0000 (  4849 PWs)   bands (ev):

   -19.8719 -15.4223 -11.7117  -7.3760  -1.1243   4.6108   5.2865   5.4364

          k = 0.1389 0.5615 0.0000 (  4851 PWs)   bands (ev):

   -18.6624 -16.9131 -11.9363  -6.3751  -2.3944   5.1574   6.4580   7.1519

          k = 0.2084 0.3610 0.0000 (  4843 PWs)   bands (ev):

   -21.0780 -13.1980 -11.7744  -8.6487   0.8245   2.9128   3.7178   4.5804

          k = 0.2084 0.4412 0.0000 (  4860 PWs)   bands (ev):

   -20.0707 -14.4959 -12.6024  -7.5345  -0.6855   4.3382   5.1069   6.0525

          k = 0.2084 0.5214 0.0000 (  4849 PWs)   bands (ev):

   -18.9097 -15.9437 -13.0295  -6.3745  -2.1054   6.0152   6.5612   6.9526

          k = 0.2084 0.6016 0.0000 (  4854 PWs)   bands (ev):

   -17.9503 -17.0150 -13.1624  -5.7105  -2.8617   6.8737   7.2180   7.7992

          k = 0.2779 0.4813 0.0000 (  4861 PWs)   bands (ev):

   -19.0004 -15.2739 -13.7508  -6.3885  -1.9558   5.8786   6.3240   7.6196

          k = 0.2779 0.5615 0.0000 (  4850 PWs)   bands (ev):

   -17.8426 -16.3387 -14.2968  -5.2856  -3.1143   6.6818   7.5998   8.6135

          k = 0.3473 0.6016 0.0000 (  4842 PWs)   bands (ev):

   -16.8726 -16.8726 -14.9422  -4.1793  -4.1793   6.4803   8.8445   8.8445

     the Fermi energy is    -4.1793 ev

!    total energy              =     -22.79603744 Ry
     estimated scf accuracy    <          7.1E-11 Ry
     smearing contrib. (-TS)   =      -0.00005015 Ry
     internal energy E=F+TS    =     -22.79598729 Ry

     The total energy is F=E-TS. E is the sum of the following terms:
     one-electron contribution =    -392.59697736 Ry
     hartree contribution      =     196.93231533 Ry
     xc contribution           =      -7.04198643 Ry
     ewald contribution        =     179.91066117 Ry

     convergence has been achieved in  13 iterations

     Forces acting on atoms (cartesian axes, Ry/au):

     atom    1 type  1   force =     0.00000000    0.00000000    0.00000000
     atom    2 type  1   force =    -0.00000000   -0.00000000    0.00000000

     Total force =     0.000000     Total SCF correction =     0.000000


     Computing stress (Cartesian axis) and pressure

          total   stress  (Ry/bohr**3)                   (kbar)     P=       -2.47
   0.00002216  -0.00000000   0.00000000            3.26       -0.00        0.00
  -0.00000000   0.00002216   0.00000000           -0.00        3.26        0.00
   0.00000000   0.00000000  -0.00009466            0.00        0.00      -13.93

     Energy error            =      2.1E-03
     Gradient error          =      1.8E-26
     Cell gradient error     =      2.2E-05


     number of scf cycles    =   4
     number of bfgs steps    =   3

     enthalpy old            =     -22.7939046803 Ry
     enthalpy new            =     -22.7960374450 Ry

     CASE: enthalpy_new < enthalpy_old

     new trust radius        =       0.0090271412 bohr
     new conv_thr            =            1.0E-10 Ry

     new unit-cell volume =    752.92896 a.u.^3 (   111.57256 Ang^3 )
     density =      0.35751 g/cm^3

CELL_PARAMETERS (alat=  4.82000000)
   0.961251731  -0.000000000   0.000000000
  -0.480625866   0.832468419   0.000000000
   0.000000000   0.000000000   8.402489627

ATOMIC_POSITIONS (crystal)
C             0.3333333333        0.6666666667        0.5000000000
C             0.6666666667        0.3333333333        0.5000000000



     Writing output data file ./work/LiC482.save/
     NEW-OLD atomic charge density approx. for the potential

     negative rho (up, down):  1.798E-08 0.000E+00
     extrapolated charge    8.02625, renormalised to    8.00000

     total cpu time spent up to now is        8.4 secs

     Self-consistent Calculation

     iteration #  1     ecut=    50.00 Ry     beta= 0.70
     Davidson diagonalization with overlap
     c_bands:  2 eigenvalues not converged
     c_bands:  3 eigenvalues not converged
     ethr =  1.00E-06,  avg # of iterations = 13.6

     total cpu time spent up to now is        8.7 secs

     total energy              =     -22.79563103 Ry
     estimated scf accuracy    <       0.00022160 Ry

     iteration #  2     ecut=    50.00 Ry     beta= 0.70
     Davidson diagonalization with overlap
     c_bands:  1 eigenvalues not converged
     c_bands:  1 eigenvalues not converged
     c_bands:  2 eigenvalues not converged
     c_bands:  1 eigenvalues not converged
     c_bands:  1 eigenvalues not converged
     ethr =  2.77E-06,  avg # of iterations = 12.9

     total cpu time spent up to now is        9.0 secs

     total energy              =     -22.79607635 Ry
     estimated scf accuracy    <       0.00020982 Ry

     iteration #  3     ecut=    50.00 Ry     beta= 0.70
     Davidson diagonalization with overlap
     ethr =  2.62E-06,  avg # of iterations =  2.0

     total cpu time spent up to now is        9.2 secs

     total energy              =     -22.79606601 Ry
     estimated scf accuracy    <       0.00004801 Ry

     iteration #  4     ecut=    50.00 Ry     beta= 0.70
     Davidson diagonalization with overlap
     ethr =  6.00E-07,  avg # of iterations =  1.0

     total cpu time spent up to now is        9.3 secs

     total energy              =     -22.79606823 Ry
     estimated scf accuracy    <       0.00001106 Ry

     iteration #  5     ecut=    50.00 Ry     beta= 0.70
     Davidson diagonalization with overlap
     ethr =  1.38E-07,  avg # of iterations =  1.0

     total cpu time spent up to now is        9.4 secs

     total energy              =     -22.79606236 Ry
     estimated scf accuracy    <       0.00001068 Ry

     iteration #  6     ecut=    50.00 Ry     beta= 0.70
     Davidson diagonalization with overlap
     ethr =  1.33E-07,  avg # of iterations =  2.0

     total cpu time spent up to now is        9.5 secs

     total energy              =     -22.79606321 Ry
     estimated scf accuracy    <       0.00000046 Ry

     iteration #  7     ecut=    50.00 Ry     beta= 0.70
     Davidson diagonalization with overlap
     ethr =  5.79E-09,  avg # of iterations =  2.0

     total cpu time spent up to now is        9.6 secs

     total energy              =     -22.79606335 Ry
     estimated scf accuracy    <       0.00000002 Ry

     iteration #  8     ecut=    50.00 Ry     beta= 0.70
     Davidson diagonalization with overlap
     ethr =  3.10E-10,  avg # of iterations =  2.3

     total cpu time spent up to now is        9.7 secs

     total energy              =     -22.79606335 Ry
     estimated scf accuracy    <          4.0E-09 Ry

     iteration #  9     ecut=    50.00 Ry     beta= 0.70
     Davidson diagonalization with overlap
     ethr =  5.04E-11,  avg # of iterations =  1.9

     total cpu time spent up to now is        9.9 secs

     total energy              =     -22.79606335 Ry
     estimated scf accuracy    <          4.4E-10 Ry

     iteration # 10     ecut=    50.00 Ry     beta= 0.70
     Davidson diagonalization with overlap
     ethr =  5.47E-12,  avg # of iterations =  2.4

     total cpu time spent up to now is       10.0 secs

     End of self-consistent calculation

          k = 0.0000 0.0000 0.0000 (  4963 PWs)   bands (ev):

   -23.8694 -11.9363  -7.2814  -7.2814  -0.9813  -0.1993   0.5933   0.9469

          k = 0.0000 0.0801 0.0000 (  4947 PWs)   bands (ev):

   -23.7636 -11.8087  -7.7078  -7.5081  -0.8372  -0.0530   0.7405   1.0935

          k = 0.0000 0.1602 0.0000 (  4901 PWs)   bands (ev):

   -23.4467 -11.4279  -8.8395  -8.0800  -0.4048   0.3853   1.1820   1.5330

          k = 0.0000 0.2402 0.0000 (  4889 PWs)   bands (ev):

   -22.9211 -10.8028 -10.3945  -8.7953   0.3153   1.1132   1.9178   2.2631

          k = 0.0000 0.3203 0.0000 (  4883 PWs)   bands (ev):

   -22.1909 -12.1369  -9.9483  -9.4905   1.3211   2.0958   2.7265   2.9458

          k = 0.0000 0.4004 0.0000 (  4862 PWs)   bands (ev):

   -21.2634 -13.9138 -10.0686  -8.8960   0.7902   2.6037   3.4626   3.6761

          k = 0.0000 0.4805 0.0000 (  4828 PWs)   bands (ev):

   -20.1539 -15.6257 -10.4763  -7.7330  -0.9885   3.4500   4.2107   5.0466

          k = 0.0000 0.5606 0.0000 (  4806 PWs)   bands (ev):

   -18.9345 -17.1563 -10.6854  -6.7597  -2.2909   3.3597   6.0291   6.8973

          k = 0.0694 0.1201 0.0000 (  4925 PWs)   bands (ev):

   -23.5522 -11.5549  -8.4343  -7.9599  -0.5489   0.2392   1.0349   1.3866

          k = 0.0694 0.2002 0.0000 (  4900 PWs)   bands (ev):

   -23.1310 -11.0517  -9.6879  -8.6953   0.0277   0.8227   1.6238   1.9719

          k = 0.0694 0.2803 0.0000 (  4881 PWs)   bands (ev):

   -22.5031 -11.2774 -10.3105  -9.4606   0.8914   1.6920   2.5066   2.8400

          k = 0.0694 0.3604 0.0000 (  4878 PWs)   bands (ev):

   -21.6741 -13.0064 -10.1286  -9.3528   1.6446   2.0388   2.8828   3.6790

          k = 0.0694 0.4405 0.0000 (  4850 PWs)   bands (ev):

   -20.6545 -14.7365 -10.6362  -8.2278  -0.1728   3.4510   4.0520   4.3174

          k = 0.0694 0.5205 0.0000 (  4822 PWs)   bands (ev):

   -19.4725 -16.3686 -10.9510  -7.0925  -1.7664   3.8652   5.1894   6.0293

          k = 0.0694 0.6006 0.0000 (  4826 PWs)   bands (ev):

   -18.4893 -17.5056 -11.0575  -6.4941  -2.5264   3.8165   7.0570   7.2133

          k = 0.1387 0.2402 0.0000 (  4901 PWs)   bands (ev):

   -22.6075 -10.7901 -10.4323  -9.6688   0.7483   1.5500   2.3601   2.7020

          k = 0.1387 0.3203 0.0000 (  4879 PWs)   bands (ev):

   -21.8808 -12.1908 -10.5836  -9.5835   1.7547   2.2044   2.5751   3.3903

          k = 0.1387 0.4004 0.0000 (  4852 PWs)   bands (ev):

   -20.9590 -13.7926 -11.2619  -8.5383   0.5079   3.0421   3.8628   4.7106

          k = 0.1387 0.4805 0.0000 (  4849 PWs)   bands (ev):

   -19.8591 -15.4184 -11.7095  -7.3762  -1.1499   4.5922   5.2211   5.4166

          k = 0.1387 0.5606 0.0000 (  4851 PWs)   bands (ev):

   -18.6557 -16.9022 -11.9334  -6.3803  -2.4133   5.0903   6.4337   7.1248

          k = 0.2081 0.3604 0.0000 (  4843 PWs)   bands (ev):

   -21.0611 -13.2036 -11.7697  -8.6431   0.7880   2.9009   3.7044   4.5673

          k = 0.2081 0.4405 0.0000 (  4860 PWs)   bands (ev):

   -20.0570 -14.4975 -12.5955  -7.5337  -0.7147   4.3215   5.0882   6.0343

          k = 0.2081 0.5205 0.0000 (  4849 PWs)   bands (ev):

   -18.9005 -15.9392 -13.0223  -6.3791  -2.1275   5.9922   6.5364   6.8830

          k = 0.2081 0.6006 0.0000 (  4854 PWs)   bands (ev):

   -17.9487 -17.0023 -13.1552  -5.7186  -2.8798   6.8032   7.1899   7.7686

          k = 0.2774 0.4805 0.0000 (  4861 PWs)   bands (ev):

   -18.9905 -15.2763 -13.7373  -6.3929  -1.9797   5.8565   6.3004   7.6416

          k = 0.2774 0.5606 0.0000 (  4850 PWs)   bands (ev):

   -17.8382 -16.3359 -14.2818  -5.2951  -3.1329   6.6579   7.5699   8.5444

          k = 0.3468 0.6006 0.0000 (  4842 PWs)   bands (ev):

   -16.8725 -16.8725 -14.9197  -4.1936  -4.1936   6.4583   8.7974   8.7974

     the Fermi energy is    -4.1936 ev

!    total energy              =     -22.79606335 Ry
     estimated scf accuracy    <          4.8E-11 Ry
     smearing contrib. (-TS)   =      -0.00005015 Ry
     internal energy E=F+TS    =     -22.79601320 Ry

     The total energy is F=E-TS. E is the sum of the following terms:
     one-electron contribution =    -391.29094089 Ry
     hartree contribution      =     196.27588991 Ry
     xc contribution           =      -7.03484627 Ry
     ewald contribution        =     179.25388405 Ry

     convergence has been achieved in  10 iterations

     Forces acting on atoms (cartesian axes, Ry/au):

     atom    1 type  1   force =     0.00000000    0.00000000    0.00000000
     atom    2 type  1   force =     0.00000000    0.00000000    0.00000000

     Total force =     0.000000     Total SCF correction =     0.000000


     Computing stress (Cartesian axis) and pressure

          total   stress  (Ry/bohr**3)                   (kbar)     P=       -4.76
  -0.00000117   0.00000000   0.00000000           -0.17        0.00        0.00
   0.00000000  -0.00000117   0.00000000            0.00       -0.17        0.00
   0.00000000   0.00000000  -0.00009482            0.00        0.00      -13.95

     Energy error            =      2.6E-05
     Gradient error          =      0.0E+00
     Cell gradient error     =      1.2E-06


     number of scf cycles    =   5
     number of bfgs steps    =   4

     enthalpy old            =     -22.7960374450 Ry
     enthalpy new            =     -22.7960633543 Ry

     CASE: enthalpy_new < enthalpy_old

     new trust radius        =       0.0004528702 bohr
     new conv_thr            =            1.0E-10 Ry

     new unit-cell volume =    752.80470 a.u.^3 (   111.55415 Ang^3 )
     density =      0.35757 g/cm^3

CELL_PARAMETERS (alat=  4.82000000)
   0.961172407  -0.000000000   0.000000000
  -0.480586204   0.832399722   0.000000000
   0.000000000   0.000000000   8.402489627

ATOMIC_POSITIONS (crystal)
C             0.3333333333        0.6666666667        0.5000000000
C             0.6666666667        0.3333333333        0.5000000000



     Writing output data file ./work/LiC482.save/
     NEW-OLD atomic charge density approx. for the potential
     extrapolated charge    7.99868, renormalised to    8.00000

     total cpu time spent up to now is       10.1 secs

     Self-consistent Calculation

     iteration #  1     ecut=    50.00 Ry     beta= 0.70
     Davidson diagonalization with overlap
     ethr =  1.00E-06,  avg # of iterations =  2.4

     Threshold (ethr) on eigenvalues was too large:
     Diagonalizing with lowered threshold

     Davidson diagonalization with overlap
     ethr =  6.03E-09,  avg # of iterations =  1.3

     total cpu time spent up to now is       10.3 secs

     total energy              =     -22.79606240 Ry
     estimated scf accuracy    <       0.00000053 Ry

     iteration #  2     ecut=    50.00 Ry     beta= 0.70
     Davidson diagonalization with overlap
     ethr =  6.57E-09,  avg # of iterations =  3.0

     total cpu time spent up to now is       10.4 secs

     total energy              =     -22.79606345 Ry
     estimated scf accuracy    <       0.00000049 Ry

     iteration #  3     ecut=    50.00 Ry     beta= 0.70
     Davidson diagonalization with overlap
     ethr =  6.12E-09,  avg # of iterations =  1.0

     total cpu time spent up to now is       10.5 secs

     total energy              =     -22.79606342 Ry
     estimated scf accuracy    <       0.00000011 Ry

     iteration #  4     ecut=    50.00 Ry     beta= 0.70
     Davidson diagonalization with overlap
     ethr =  1.41E-09,  avg # of iterations =  1.9

     total cpu time spent up to now is       10.7 secs

     total energy              =     -22.79606343 Ry
     estimated scf accuracy    <       0.00000002 Ry

     iteration #  5     ecut=    50.00 Ry     beta= 0.70
     Davidson diagonalization with overlap
     ethr =  2.18E-10,  avg # of iterations =  1.0

     total cpu time spent up to now is       10.8 secs

     total energy              =     -22.79606343 Ry
     estimated scf accuracy    <       0.00000002 Ry

     iteration #  6     ecut=    50.00 Ry     beta= 0.70
     Davidson diagonalization with overlap
     ethr =  2.18E-10,  avg # of iterations =  1.0

     total cpu time spent up to now is       10.9 secs

     total energy              =     -22.79606342 Ry
     estimated scf accuracy    <       0.00000001 Ry

     iteration #  7     ecut=    50.00 Ry     beta= 0.70
     Davidson diagonalization with overlap
     ethr =  1.25E-10,  avg # of iterations =  2.0

     total cpu time spent up to now is       11.0 secs

     End of self-consistent calculation

          k = 0.0000 0.0000 0.0000 (  4963 PWs)   bands (ev):

   -23.8707 -11.9372  -7.2806  -7.2806  -0.9813  -0.1993   0.5933   0.9469

          k = 0.0000 0.0801 0.0000 (  4947 PWs)   bands (ev):

   -23.7648 -11.8096  -7.7071  -7.5074  -0.8372  -0.0530   0.7405   1.0935

          k = 0.0000 0.1602 0.0000 (  4901 PWs)   bands (ev):

   -23.4479 -11.4288  -8.8388  -8.0793  -0.4048   0.3854   1.1821   1.5331

          k = 0.0000 0.2403 0.0000 (  4889 PWs)   bands (ev):

   -22.9222 -10.8036 -10.3940  -8.7948   0.3155   1.1134   1.9180   2.2633

          k = 0.0000 0.3204 0.0000 (  4883 PWs)   bands (ev):

   -22.1919 -12.1367  -9.9488  -9.4903   1.3214   2.0963   2.7281   2.9461

          k = 0.0000 0.4004 0.0000 (  4862 PWs)   bands (ev):

   -21.2642 -13.9138 -10.0684  -8.8963   0.7919   2.6043   3.4633   3.6792

          k = 0.0000 0.4805 0.0000 (  4828 PWs)   bands (ev):

   -20.1545 -15.6260 -10.4762  -7.7330  -0.9872   3.4531   4.2117   5.0475

          k = 0.0000 0.5606 0.0000 (  4806 PWs)   bands (ev):

   -18.9348 -17.1569 -10.6854  -6.7595  -2.2900   3.3630   6.0302   6.8985

          k = 0.0694 0.1201 0.0000 (  4925 PWs)   bands (ev):

   -23.5534 -11.5558  -8.4336  -7.9593  -0.5489   0.2393   1.0349   1.3866

          k = 0.0694 0.2002 0.0000 (  4900 PWs)   bands (ev):

   -23.1322 -11.0525  -9.6873  -8.6948   0.0278   0.8229   1.6239   1.9720

          k = 0.0694 0.2803 0.0000 (  4881 PWs)   bands (ev):

   -22.5041 -11.2770 -10.3111  -9.4603   0.8917   1.6923   2.5069   2.8404

          k = 0.0694 0.3604 0.0000 (  4878 PWs)   bands (ev):

   -21.6750 -13.0063 -10.1284  -9.3532   1.6465   2.0392   2.8833   3.6794

          k = 0.0694 0.4405 0.0000 (  4850 PWs)   bands (ev):

   -20.6553 -14.7366 -10.6361  -8.2280  -0.1713   3.4518   4.0551   4.3182

          k = 0.0694 0.5206 0.0000 (  4822 PWs)   bands (ev):

   -19.4730 -16.3690 -10.9510  -7.0924  -1.7653   3.8684   5.1904   6.0304

          k = 0.0694 0.6007 0.0000 (  4826 PWs)   bands (ev):

   -18.4894 -17.5064 -11.0575  -6.4938  -2.5255   3.8198   7.0584   7.2147

          k = 0.1387 0.2403 0.0000 (  4901 PWs)   bands (ev):

   -22.6085 -10.7896 -10.4329  -9.6685   0.7486   1.5503   2.3603   2.7023

          k = 0.1387 0.3204 0.0000 (  4879 PWs)   bands (ev):

   -21.8818 -12.1905 -10.5835  -9.5839   1.7551   2.2065   2.5756   3.3907

          k = 0.1387 0.4004 0.0000 (  4852 PWs)   bands (ev):

   -20.9598 -13.7925 -11.2619  -8.5385   0.5097   3.0427   3.8635   4.7112

          k = 0.1387 0.4805 0.0000 (  4849 PWs)   bands (ev):

   -19.8597 -15.4186 -11.7096  -7.3762  -1.1486   4.5932   5.2243   5.4176

          k = 0.1387 0.5606 0.0000 (  4851 PWs)   bands (ev):

   -18.6560 -16.9027 -11.9335  -6.3800  -2.4123   5.0937   6.4349   7.1261

          k = 0.2081 0.3604 0.0000 (  4843 PWs)   bands (ev):

   -21.0620 -13.2033 -11.7699  -8.6433   0.7898   2.9015   3.7050   4.5679

          k = 0.2081 0.4405 0.0000 (  4860 PWs)   bands (ev):

   -20.0577 -14.4974 -12.5959  -7.5338  -0.7132   4.3223   5.0892   6.0351

          k = 0.2081 0.5206 0.0000 (  4849 PWs)   bands (ev):

   -18.9009 -15.9394 -13.0227  -6.3789  -2.1264   5.9934   6.5376   6.8865

          k = 0.2081 0.6007 0.0000 (  4854 PWs)   bands (ev):

   -17.9488 -17.0029 -13.1555  -5.7182  -2.8789   6.8067   7.1913   7.7702

          k = 0.2774 0.4805 0.0000 (  4861 PWs)   bands (ev):

   -18.9910 -15.2761 -13.7380  -6.3926  -1.9785   5.8576   6.3015   7.6427

          k = 0.2774 0.5606 0.0000 (  4850 PWs)   bands (ev):

   -17.8384 -16.3360 -14.2826  -5.2947  -3.1319   6.6591   7.5714   8.5478

          k = 0.3468 0.6007 0.0000 (  4842 PWs)   bands (ev):

   -16.8725 -16.8725 -14.9208  -4.1929  -4.1929   6.4594   8.7997   8.7997

     the Fermi energy is    -4.1929 ev

!    total energy              =     -22.79606342 Ry
     estimated scf accuracy    <          8.4E-11 Ry
     smearing contrib. (-TS)   =      -0.00005015 Ry
     internal energy E=F+TS    =     -22.79601327 Ry

     The total energy is F=E-TS. E is the sum of the following terms:
     one-electron contribution =    -391.35628821 Ry
     hartree contribution      =     196.30872296 Ry
     xc contribution           =      -7.03520124 Ry
     ewald contribution        =     179.28675322 Ry

     convergence has been achieved in   7 iterations

     Forces acting on atoms (cartesian axes, Ry/au):

     atom    1 type  1   force =     0.00000000    0.00000000    0.00000000
     atom    2 type  1   force =    -0.00000000   -0.00000000    0.00000000

     Total force =     0.000000     Total SCF correction =     0.000000


     Computing stress (Cartesian axis) and pressure

          total   stress  (Ry/bohr**3)                   (kbar)     P=       -4.65
  -0.00000001   0.00000000   0.00000000           -0.00        0.00        0.00
   0.00000000  -0.00000001   0.00000000            0.00       -0.00        0.00
   0.00000000   0.00000000  -0.00009483            0.00        0.00      -13.95

     Energy error            =      6.7E-08
     Gradient error          =      1.8E-26
     Cell gradient error     =      9.2E-09


     number of scf cycles    =   6
     number of bfgs steps    =   5

     enthalpy old            =     -22.7960633543 Ry
     enthalpy new            =     -22.7960634216 Ry

     CASE: enthalpy_new < enthalpy_old

     small trust_radius: resetting bfgs history

     new trust radius        =       0.0000012671 bohr
     new conv_thr            =            1.0E-10 Ry

     new unit-cell volume =    752.80435 a.u.^3 (   111.55410 Ang^3 )
     density =      0.35757 g/cm^3

CELL_PARAMETERS (alat=  4.82000000)
   0.961172185  -0.000000000   0.000000000
  -0.480586093   0.832399530   0.000000000
   0.000000000   0.000000000   8.402489627

ATOMIC_POSITIONS (crystal)
C             0.3333333333        0.6666666667        0.5000000000
C             0.6666666667        0.3333333333        0.5000000000



     Writing output data file ./work/LiC482.save/
     NEW-OLD atomic charge density approx. for the potential
     extrapolated charge    8.00000, renormalised to    8.00000

     total cpu time spent up to now is       11.1 secs

     Self-consistent Calculation

     iteration #  1     ecut=    50.00 Ry     beta= 0.70
     Davidson diagonalization with overlap
     ethr =  1.00E-06,  avg # of iterations =  1.0

     Threshold (ethr) on eigenvalues was too large:
     Diagonalizing with lowered threshold

     Davidson diagonalization with overlap
     ethr =  3.89E-13,  avg # of iterations =  2.6

     total cpu time spent up to now is       11.3 secs

     End of self-consistent calculation

          k = 0.0000 0.0000 0.0000 (  4963 PWs)   bands (ev):

   -23.8710 -11.9375  -7.2810  -7.2810  -0.9815  -0.1993   0.5933   0.9469

          k = 0.0000 0.0801 0.0000 (  4947 PWs)   bands (ev):

   -23.7652 -11.8099  -7.7074  -7.5077  -0.8374  -0.0531   0.7405   1.0936

          k = 0.0000 0.1602 0.0000 (  4901 PWs)   bands (ev):

   -23.4483 -11.4291  -8.8392  -8.0797  -0.4050   0.3853   1.1822   1.5332

          k = 0.0000 0.2403 0.0000 (  4889 PWs)   bands (ev):

   -22.9226 -10.8039 -10.3944  -8.7952   0.3153   1.1133   1.9181   2.2633

          k = 0.0000 0.3204 0.0000 (  4883 PWs)   bands (ev):

   -22.1922 -12.1370  -9.9492  -9.4906   1.3212   2.0962   2.7278   2.9461

          k = 0.0000 0.4004 0.0000 (  4862 PWs)   bands (ev):

   -21.2646 -13.9142 -10.0688  -8.8966   0.7915   2.6041   3.4632   3.6789

          k = 0.0000 0.4805 0.0000 (  4828 PWs)   bands (ev):

   -20.1549 -15.6263 -10.4766  -7.7333  -0.9875   3.4527   4.2115   5.0474

          k = 0.0000 0.5606 0.0000 (  4806 PWs)   bands (ev):

   -18.9352 -17.1573 -10.6858  -6.7599  -2.2903   3.3626   6.0300   6.8984

          k = 0.0694 0.1201 0.0000 (  4925 PWs)   bands (ev):

   -23.5538 -11.5561  -8.4340  -7.9596  -0.5490   0.2392   1.0350   1.3867

          k = 0.0694 0.2002 0.0000 (  4900 PWs)   bands (ev):

   -23.1325 -11.0528  -9.6876  -8.6952   0.0277   0.8228   1.6240   1.9721

          k = 0.0694 0.2803 0.0000 (  4881 PWs)   bands (ev):

   -22.5045 -11.2774 -10.3114  -9.4607   0.8915   1.6922   2.5070   2.8404

          k = 0.0694 0.3604 0.0000 (  4878 PWs)   bands (ev):

   -21.6754 -13.0067 -10.1288  -9.3536   1.6462   2.0390   2.8832   3.6794

          k = 0.0694 0.4405 0.0000 (  4850 PWs)   bands (ev):

   -20.6556 -14.7370 -10.6365  -8.2283  -0.1716   3.4516   4.0548   4.3181

          k = 0.0694 0.5206 0.0000 (  4822 PWs)   bands (ev):

   -19.4734 -16.3693 -10.9513  -7.0927  -1.7656   3.8681   5.1903   6.0302

          k = 0.0694 0.6007 0.0000 (  4826 PWs)   bands (ev):

   -18.4898 -17.5068 -11.0578  -6.4941  -2.5259   3.8194   7.0582   7.2145

          k = 0.1387 0.2403 0.0000 (  4901 PWs)   bands (ev):

   -22.6089 -10.7899 -10.4333  -9.6689   0.7484   1.5502   2.3604   2.7024

          k = 0.1387 0.3204 0.0000 (  4879 PWs)   bands (ev):

   -21.8821 -12.1908 -10.5839  -9.5842   1.7549   2.2062   2.5755   3.3908

          k = 0.1387 0.4004 0.0000 (  4852 PWs)   bands (ev):

   -20.9602 -13.7928 -11.2623  -8.5388   0.5093   3.0425   3.8634   4.7113

          k = 0.1387 0.4805 0.0000 (  4849 PWs)   bands (ev):

   -19.8601 -15.4189 -11.7100  -7.3765  -1.1489   4.5930   5.2240   5.4174

          k = 0.1387 0.5606 0.0000 (  4851 PWs)   bands (ev):

   -18.6564 -16.9031 -11.9339  -6.3803  -2.4126   5.0934   6.4347   7.1260

          k = 0.2081 0.3604 0.0000 (  4843 PWs)   bands (ev):

   -21.0623 -13.2036 -11.7703  -8.6437   0.7895   2.9013   3.7049   4.5680

          k = 0.2081 0.4405 0.0000 (  4860 PWs)   bands (ev):

   -20.0580 -14.4978 -12.5962  -7.5341  -0.7135   4.3221   5.0891   6.0352

          k = 0.2081 0.5206 0.0000 (  4849 PWs)   bands (ev):

   -18.9013 -15.9398 -13.0230  -6.3792  -2.1267   5.9932   6.5374   6.8861

          k = 0.2081 0.6007 0.0000 (  4854 PWs)   bands (ev):

   -17.9491 -17.0032 -13.1559  -5.7185  -2.8792   6.8064   7.1911   7.7700

          k = 0.2774 0.4805 0.0000 (  4861 PWs)   bands (ev):

   -18.9913 -15.2765 -13.7384  -6.3930  -1.9788   5.8574   6.3013   7.6428

          k = 0.2774 0.5606 0.0000 (  4850 PWs)   bands (ev):

   -17.8387 -16.3364 -14.2829  -5.2950  -3.1323   6.6588   7.5712   8.5474

          k = 0.3468 0.6007 0.0000 (  4842 PWs)   bands (ev):

   -16.8729 -16.8729 -14.9212  -4.1932  -4.1932   6.4591   8.7994   8.7994

     the Fermi energy is    -4.1932 ev

!    total energy              =     -22.79606342 Ry
     estimated scf accuracy    <          3.7E-11 Ry
     smearing contrib. (-TS)   =      -0.00005015 Ry
     internal energy E=F+TS    =     -22.79601327 Ry

     The total energy is F=E-TS. E is the sum of the following terms:
     one-electron contribution =    -391.35652570 Ry
     hartree contribution      =     196.30887646 Ry
     xc contribution           =      -7.03520923 Ry
     ewald contribution        =     179.28684520 Ry

     convergence has been achieved in   1 iterations

     Forces acting on atoms (cartesian axes, Ry/au):

     atom    1 type  1   force =     0.00000000    0.00000000    0.00000000
     atom    2 type  1   force =     0.00000000    0.00000000    0.00000000

     Total force =     0.000000     Total SCF correction =     0.000000


     Computing stress (Cartesian axis) and pressure

          total   stress  (Ry/bohr**3)                   (kbar)     P=       -4.65
  -0.00000000  -0.00000000   0.00000000           -0.00       -0.00        0.00
  -0.00000000  -0.00000000   0.00000000           -0.00       -0.00        0.00
  -0.00000000   0.00000000  -0.00009477           -0.00        0.00      -13.94

     Energy error            =      4.8E-11
     Gradient error          =      0.0E+00
     Cell gradient error     =      3.2E-09


     bfgs converged in   7 scf cycles and   6 bfgs steps
     (criteria: energy <  1.0E-04 Ry, force <  1.0E-08Ry/Bohr, cell <  1.0E-03kbar)

     End of BFGS Geometry Optimization

     Final enthalpy =     -22.7960634216 Ry

     File ./work/LiC482.bfgs deleted, as requested
Begin final coordinates
     new unit-cell volume =    752.80435 a.u.^3 (   111.55410 Ang^3 )
     density =      0.35757 g/cm^3

CELL_PARAMETERS (alat=  4.82000000)
   0.961172185  -0.000000000   0.000000000
  -0.480586093   0.832399530   0.000000000
   0.000000000   0.000000000   8.402489627

ATOMIC_POSITIONS (crystal)
C             0.3333333333        0.6666666667        0.5000000000
C             0.6666666667        0.3333333333        0.5000000000
End final coordinates



     Writing output data file ./work/LiC482.save/

     Final scf calculation at the relaxed structure.
     The G-vectors are recalculated for the final unit cell
     Results may differ from those at the preceding step.
 
     Parallelization info
     --------------------
     sticks:   dense  smooth     PW     G-vecs:    dense   smooth      PW
     Min           9       9      2                 1115     1115     170
     Max          10      10      3                 1146     1146     215
     Sum         301     301     91                36039    36039    6397
 


     bravais-lattice index     =            4
     lattice parameter (alat)  =       4.8200  a.u.
     unit-cell volume          =     752.8044 (a.u.)^3
     number of atoms/cell      =            2
     number of atomic types    =            1
     number of electrons       =         8.00
     number of Kohn-Sham states=            8
     kinetic-energy cutoff     =      50.0000  Ry
     charge density cutoff     =     200.0000  Ry
     scf convergence threshold =      1.0E-10
     mixing beta               =       0.7000
     number of iterations used =            8  plain     mixing
     press convergence thresh. =      1.0E-03
     Exchange-correlation= PBE
                           (   1   4   3   4   0   0   0)

     celldm(1)=   4.820000  celldm(2)=   0.000000  celldm(3)=   8.402490
     celldm(4)=   0.000000  celldm(5)=   0.000000  celldm(6)=   0.000000

     crystal axes: (cart. coord. in units of alat)
               a(1) = (   0.961172  -0.000000   0.000000 )  
               a(2) = (  -0.480586   0.832400   0.000000 )  
               a(3) = (   0.000000   0.000000   8.402490 )  

     reciprocal axes: (cart. coord. in units 2 pi/alat)
               b(1) = (  1.040396  0.600673  0.000000 )  
               b(2) = (  0.000000  1.201346  0.000000 )  
               b(3) = (  0.000000  0.000000  0.119012 )  


     PseudoPot. # 1 for C  read from file:
     /home/yhkim/qe-6.7/pseudo/ONCV1/1.2/C_ONCV_PBE-1.2.upf
     MD5 check sum: 1a5f83a7b1f58d24996abe00ed223ac6
     Pseudo is Norm-conserving, Zval =  4.0
     Generated using ONCVPSP code by D. R. Hamann
     Using radial grid of  602 points,  4 beta functions with: 
                l(1) =   0
                l(2) =   0
                l(3) =   1
                l(4) =   1

     atomic species   valence    mass     pseudopotential
        C              4.00    12.01070     C ( 1.00)

     24 Sym. Ops., with inversion, found



   Cartesian axes

     site n.     atom                  positions (alat units)
         1           C   tau(   1) = (  -0.0000000   0.5549330   4.2012448  )
         2           C   tau(   2) = (   0.4805861   0.2774665   4.2012448  )

     number of k points=    27  Methfessel-Paxton smearing, width (Ry)=  0.0100
                       cart. coord. in units 2pi/alat
        k(    1) = (   0.0000000   0.0000000   0.0000000), wk =   0.0088889
        k(    2) = (   0.0000000   0.0800897   0.0000000), wk =   0.0533333
        k(    3) = (   0.0000000   0.1601795   0.0000000), wk =   0.0533333
        k(    4) = (   0.0000000   0.2402692   0.0000000), wk =   0.0533333
        k(    5) = (   0.0000000   0.3203590   0.0000000), wk =   0.0533333
        k(    6) = (   0.0000000   0.4004487   0.0000000), wk =   0.0533333
        k(    7) = (   0.0000000   0.4805385   0.0000000), wk =   0.0533333
        k(    8) = (   0.0000000   0.5606282   0.0000000), wk =   0.0533333
        k(    9) = (   0.0693598   0.1201346   0.0000000), wk =   0.0533333
        k(   10) = (   0.0693598   0.2002244   0.0000000), wk =   0.1066667
        k(   11) = (   0.0693598   0.2803141   0.0000000), wk =   0.1066667
        k(   12) = (   0.0693598   0.3604039   0.0000000), wk =   0.1066667
        k(   13) = (   0.0693598   0.4404936   0.0000000), wk =   0.1066667
        k(   14) = (   0.0693598   0.5205833   0.0000000), wk =   0.1066667
        k(   15) = (   0.0693598   0.6006731   0.0000000), wk =   0.0533333
        k(   16) = (   0.1387195   0.2402692   0.0000000), wk =   0.0533333
        k(   17) = (   0.1387195   0.3203590   0.0000000), wk =   0.1066667
        k(   18) = (   0.1387195   0.4004487   0.0000000), wk =   0.1066667
        k(   19) = (   0.1387195   0.4805385   0.0000000), wk =   0.1066667
        k(   20) = (   0.1387195   0.5606282   0.0000000), wk =   0.1066667
        k(   21) = (   0.2080793   0.3604039   0.0000000), wk =   0.0533333
        k(   22) = (   0.2080793   0.4404936   0.0000000), wk =   0.1066667
        k(   23) = (   0.2080793   0.5205833   0.0000000), wk =   0.1066667
        k(   24) = (   0.2080793   0.6006731   0.0000000), wk =   0.0533333
        k(   25) = (   0.2774390   0.4805385   0.0000000), wk =   0.0533333
        k(   26) = (   0.2774390   0.5606282   0.0000000), wk =   0.1066667
        k(   27) = (   0.3467988   0.6006731   0.0000000), wk =   0.0177778

     Dense  grid:    36039 G-vectors     FFT dimensions: (  24,  24, 192)

     Estimated max dynamical RAM per process >       1.96 MB

     Estimated total dynamical RAM >      62.59 MB
 ----2D----2D----2D----2D----2D----2D----2D----2D----2D----2D----2D----2D
  The code is running with the 2D cutoff
  Please refer to:
  Sohier, T., Calandra, M., & Mauri, F. (2017), 
  Density functional perturbation theory for gated two-dimensional heterostructu
 res:
  Theoretical developments and application to flexural phonons in graphene.
  Physical Review B, 96(7), 75448. https://doi.org/10.1103/PhysRevB.96.075448
 ----2D----2D----2D----2D----2D----2D----2D----2D----2D----2D----2D----2D

     Initial potential from superposition of free atoms

     starting charge    7.98607, renormalised to    8.00000

     negative rho (up, down):  1.155E-04 0.000E+00
     Starting wfcs are random

     total cpu time spent up to now is       11.4 secs

     Self-consistent Calculation

     iteration #  1     ecut=    50.00 Ry     beta= 0.70
     Davidson diagonalization with overlap
     c_bands:  5 eigenvalues not converged
     c_bands:  5 eigenvalues not converged
     c_bands:  3 eigenvalues not converged
     c_bands:  5 eigenvalues not converged
     c_bands:  4 eigenvalues not converged
     c_bands:  4 eigenvalues not converged
     c_bands:  2 eigenvalues not converged
     c_bands:  2 eigenvalues not converged
     c_bands:  3 eigenvalues not converged
     c_bands:  5 eigenvalues not converged
     c_bands:  4 eigenvalues not converged
     c_bands:  4 eigenvalues not converged
     c_bands:  3 eigenvalues not converged
     c_bands:  3 eigenvalues not converged
     c_bands:  2 eigenvalues not converged
     c_bands:  4 eigenvalues not converged
     c_bands:  4 eigenvalues not converged
     c_bands:  4 eigenvalues not converged
     c_bands:  3 eigenvalues not converged
     c_bands:  2 eigenvalues not converged
     c_bands:  4 eigenvalues not converged
     c_bands:  3 eigenvalues not converged
     c_bands:  3 eigenvalues not converged
     c_bands:  3 eigenvalues not converged
     c_bands:  3 eigenvalues not converged
     c_bands:  3 eigenvalues not converged
     c_bands:  3 eigenvalues not converged
     ethr =  1.00E-06,  avg # of iterations = 21.5

     negative rho (up, down):  2.299E-05 0.000E+00

     total cpu time spent up to now is       12.2 secs

     total energy              =     -22.76002534 Ry
     estimated scf accuracy    <       0.19998615 Ry

     iteration #  2     ecut=    50.00 Ry     beta= 0.70
     Davidson diagonalization with overlap
     ethr =  2.50E-03,  avg # of iterations =  2.3

     negative rho (up, down):  2.988E-06 0.000E+00

     total cpu time spent up to now is       12.3 secs

     total energy              =     -22.79015888 Ry
     estimated scf accuracy    <       0.00234623 Ry

     iteration #  3     ecut=    50.00 Ry     beta= 0.70
     Davidson diagonalization with overlap
     c_bands:  1 eigenvalues not converged
     ethr =  2.93E-05,  avg # of iterations =  8.8

     total cpu time spent up to now is       12.5 secs

     total energy              =     -22.79056101 Ry
     estimated scf accuracy    <       0.00017296 Ry

     iteration #  4     ecut=    50.00 Ry     beta= 0.70
     Davidson diagonalization with overlap
     ethr =  2.16E-06,  avg # of iterations =  4.8

     total cpu time spent up to now is       12.6 secs

     total energy              =     -22.79057496 Ry
     estimated scf accuracy    <       0.00000117 Ry

     iteration #  5     ecut=    50.00 Ry     beta= 0.70
     Davidson diagonalization with overlap
     ethr =  1.46E-08,  avg # of iterations =  3.8

     total cpu time spent up to now is       12.7 secs

     total energy              =     -22.79057645 Ry
     estimated scf accuracy    <       0.00000004 Ry

     iteration #  6     ecut=    50.00 Ry     beta= 0.70
     Davidson diagonalization with overlap
     ethr =  4.68E-10,  avg # of iterations =  2.6

     total cpu time spent up to now is       12.9 secs

     total energy              =     -22.79057646 Ry
     estimated scf accuracy    <          9.8E-10 Ry

     iteration #  7     ecut=    50.00 Ry     beta= 0.70
     Davidson diagonalization with overlap
     ethr =  1.23E-11,  avg # of iterations =  3.0

     total cpu time spent up to now is       13.0 secs

     End of self-consistent calculation

          k = 0.0000 0.0000 0.0000 (  4459 PWs)   bands (ev):

   -23.8791 -11.9401  -7.2697  -7.2697  -0.9834  -0.2036   0.5838   0.9389

          k = 0.0000 0.0801 0.0000 (  4461 PWs)   bands (ev):

   -23.7729 -11.8119  -7.6964  -7.4971  -0.8392  -0.0573   0.7310   1.0856

          k = 0.0000 0.1602 0.0000 (  4489 PWs)   bands (ev):

   -23.4560 -11.4319  -8.8294  -8.0688  -0.4067   0.3810   1.1727   1.5251

          k = 0.0000 0.2403 0.0000 (  4467 PWs)   bands (ev):

   -22.9300 -10.8064 -10.3841  -8.7827   0.3137   1.1092   1.9086   2.2553

          k = 0.0000 0.3204 0.0000 (  4509 PWs)   bands (ev):

   -22.1996 -12.1333  -9.9508  -9.4817   1.3197   2.0929   2.7292   2.9368

          k = 0.0000 0.4004 0.0000 (  4519 PWs)   bands (ev):

   -21.2718 -13.9152 -10.0604  -8.8972   0.7942   2.6029   3.4595   3.6758

          k = 0.0000 0.4805 0.0000 (  4515 PWs)   bands (ev):

   -20.1615 -15.6304 -10.4702  -7.7336  -0.9867   3.4480   4.2098   5.0441

          k = 0.0000 0.5606 0.0000 (  4521 PWs)   bands (ev):

   -18.9419 -17.1623 -10.6808  -6.7600  -2.2906   3.3565   6.0291   6.8955

          k = 0.0694 0.1201 0.0000 (  4491 PWs)   bands (ev):

   -23.5616 -11.5579  -8.4235  -7.9491  -0.5508   0.2350   1.0255   1.3787

          k = 0.0694 0.2002 0.0000 (  4483 PWs)   bands (ev):

   -23.1401 -11.0549  -9.6765  -8.6854   0.0260   0.8187   1.6145   1.9641

          k = 0.0694 0.2803 0.0000 (  4482 PWs)   bands (ev):

   -22.5119 -11.2703 -10.3128  -9.4507   0.8899   1.6883   2.4976   2.8330

          k = 0.0694 0.3604 0.0000 (  4498 PWs)   bands (ev):

   -21.6826 -13.0048 -10.1200  -9.3539   1.6506   2.0377   2.8795   3.6705

          k = 0.0694 0.4405 0.0000 (  4508 PWs)   bands (ev):

   -20.6625 -14.7395 -10.6287  -8.2298  -0.1687   3.4507   4.0517   4.3146

          k = 0.0694 0.5206 0.0000 (  4514 PWs)   bands (ev):

   -19.4801 -16.3737 -10.9452  -7.0945  -1.7650   3.8641   5.1891   6.0272

          k = 0.0694 0.6007 0.0000 (  4514 PWs)   bands (ev):

   -18.4966 -17.5110 -11.0526  -6.4941  -2.5247   3.8151   7.0579   7.2140

          k = 0.1387 0.2403 0.0000 (  4485 PWs)   bands (ev):

   -22.6163 -10.7830 -10.4343  -9.6612   0.7468   1.5463   2.3509   2.6944

          k = 0.1387 0.3204 0.0000 (  4477 PWs)   bands (ev):

   -21.8894 -12.1868 -10.5753  -9.5856   1.7535   2.2118   2.5719   3.3813

          k = 0.1387 0.4004 0.0000 (  4501 PWs)   bands (ev):

   -20.9673 -13.7931 -11.2562  -8.5401   0.5100   3.0413   3.8599   4.7019

          k = 0.1387 0.4805 0.0000 (  4507 PWs)   bands (ev):

   -19.8669 -15.4215 -11.7044  -7.3776  -1.1487   4.5923   5.2244   5.4145

          k = 0.1387 0.5606 0.0000 (  4503 PWs)   bands (ev):

   -18.6628 -16.9072 -11.9288  -6.3814  -2.4109   5.0935   6.4340   7.1245

          k = 0.2081 0.3604 0.0000 (  4485 PWs)   bands (ev):

   -21.0696 -13.2034 -11.7636  -8.6457   0.7914   2.8999   3.7014   4.5585

          k = 0.2081 0.4405 0.0000 (  4489 PWs)   bands (ev):

   -20.0648 -14.4992 -12.5910  -7.5345  -0.7113   4.3211   5.0863   6.0263

          k = 0.2081 0.5206 0.0000 (  4499 PWs)   bands (ev):

   -18.9077 -15.9432 -13.0187  -6.3802  -2.1259   5.9928   6.5360   6.8928

          k = 0.2081 0.6007 0.0000 (  4494 PWs)   bands (ev):

   -17.9553 -17.0068 -13.1520  -5.7190  -2.8778   6.8130   7.1905   7.7726

          k = 0.2774 0.4805 0.0000 (  4469 PWs)   bands (ev):

   -18.9974 -15.2782 -13.7343  -6.3923  -1.9771   5.8570   6.3001   7.5890

          k = 0.2774 0.5606 0.0000 (  4484 PWs)   bands (ev):

   -17.8441 -16.3399 -14.2805  -5.2945  -3.1322   6.6574   7.5726   8.5597

          k = 0.3468 0.6007 0.0000 (  4473 PWs)   bands (ev):

   -16.8771 -16.8771 -14.9190  -4.1927  -4.1927   6.4572   8.8083   8.8083

     the Fermi energy is    -4.1927 ev

!    total energy              =     -22.79057646 Ry
     estimated scf accuracy    <          1.2E-11 Ry
     smearing contrib. (-TS)   =      -0.00005015 Ry
     internal energy E=F+TS    =     -22.79052631 Ry

     The total energy is F=E-TS. E is the sum of the following terms:
     one-electron contribution =    -391.34544068 Ry
     hartree contribution      =     196.30294914 Ry
     xc contribution           =      -7.03487994 Ry
     ewald contribution        =     179.28684518 Ry

     convergence has been achieved in   7 iterations

     Forces acting on atoms (cartesian axes, Ry/au):

     atom    1 type  1   force =    -0.00000000   -0.00000000    0.00000000
     atom    2 type  1   force =     0.00000000    0.00000000    0.00000000

     Total force =     0.000000     Total SCF correction =     0.000000


     Computing stress (Cartesian axis) and pressure

          total   stress  (Ry/bohr**3)                   (kbar)     P=       -8.34
  -0.00003040  -0.00000000   0.00000000           -4.47       -0.00        0.00
   0.00000000  -0.00003040   0.00000000            0.00       -4.47        0.00
   0.00000000   0.00000000  -0.00010933            0.00        0.00      -16.08


     Writing output data file ./work/LiC482.save/
 
     init_run     :      0.13s CPU      0.15s WALL (       2 calls)
     electrons    :     11.45s CPU     12.45s WALL (       8 calls)
     update_pot   :      0.07s CPU      0.08s WALL (       6 calls)
     forces       :      0.06s CPU      0.07s WALL (       8 calls)
     stress       :      0.19s CPU      0.19s WALL (       8 calls)

     Called by init_run:
     wfcinit      :      0.09s CPU      0.10s WALL (       2 calls)
     potinit      :      0.01s CPU      0.02s WALL (       2 calls)
     hinit0       :      0.01s CPU      0.01s WALL (       2 calls)

     Called by electrons:
     c_bands      :      9.93s CPU     10.67s WALL (      74 calls)
     sum_band     :      1.34s CPU      1.43s WALL (      74 calls)
     v_of_rho     :      0.15s CPU      0.16s WALL (      80 calls)
     mix_rho      :      0.03s CPU      0.03s WALL (      74 calls)

     Called by c_bands:
     init_us_2    :      0.08s CPU      0.09s WALL (    4482 calls)
     cegterg      :      9.69s CPU     10.40s WALL (    2000 calls)

     Called by *egterg:
     cdiaghg      :      0.88s CPU      0.95s WALL (    9938 calls)
     h_psi        :      8.18s CPU      8.78s WALL (   10210 calls)
     g_psi        :      0.02s CPU      0.02s WALL (    8156 calls)

     Called by h_psi:
     h_psi:calbec :      0.31s CPU      0.33s WALL (   10210 calls)
     vloc_psi     :      7.72s CPU      8.28s WALL (   10210 calls)
     add_vuspsi   :      0.08s CPU      0.08s WALL (   10210 calls)

     General routines
     calbec       :      0.34s CPU      0.37s WALL (   11290 calls)
     fft          :      0.13s CPU      0.14s WALL (     864 calls)
     ffts         :      0.01s CPU      0.01s WALL (      74 calls)
     fftw         :      8.45s CPU      9.06s WALL (  122488 calls)
 
     Parallel routines
     fft_scatt_xy :      0.57s CPU      0.61s WALL (  123426 calls)
     fft_scatt_yz :      4.91s CPU      5.26s WALL (  123426 calls)
 
     PWSCF        :     11.99s CPU     13.26s WALL

 
   This run was terminated on:  14:17:21  19Jan2024            

=------------------------------------------------------------------------------=
   JOB DONE.
=------------------------------------------------------------------------------=
