
     Program PWSCF v.6.7MaX starts on 19Jan2024 at 14:10: 0 

     This program is part of the open-source Quantum ESPRESSO suite
     for quantum simulation of materials; please cite
         "P. Giannozzi et al., J. Phys.:Condens. Matter 21 395502 (2009);
         "P. Giannozzi et al., J. Phys.:Condens. Matter 29 465901 (2017);
          URL http://www.quantum-espresso.org", 
     in publications or presentations arising from this work. More details at
     http://www.quantum-espresso.org/quote

     Parallel version (MPI), running on    32 processors

     MPI processes distributed on     1 nodes
     R & G space division:  proc/nbgrp/npool/nimage =      32
     Waiting for input...
     Reading input from standard input

     Current dimensions of program PWSCF are:
     Max number of different atomic species (ntypx) = 10
     Max number of k-points (npk) =  40000
     Max angular momentum in pseudopotentials (lmaxx) =  3
     Message from routine read_pp_mesh:
     mesh size missing, using the one in header

     Subspace diagonalization in iterative solution of the eigenvalue problem:
     a serial algorithm will be used

 
     Parallelization info
     --------------------
     sticks:   dense  smooth     PW     G-vecs:    dense   smooth      PW
     Min           7       7      2                  947      947     164
     Max           8       8      3                  994      994     201
     Sum         253     253     85                31443    31443    5875
 


     bravais-lattice index     =            4
     lattice parameter (alat)  =       4.3300  a.u.
     unit-cell volume          =     657.5995 (a.u.)^3
     number of atoms/cell      =            2
     number of atomic types    =            1
     number of electrons       =         8.00
     number of Kohn-Sham states=            8
     kinetic-energy cutoff     =      50.0000  Ry
     charge density cutoff     =     200.0000  Ry
     scf convergence threshold =      1.0E-08
     mixing beta               =       0.7000
     number of iterations used =            8  plain     mixing
     energy convergence thresh.=      1.0E-04
     force convergence thresh. =      1.0E-08
     press convergence thresh. =      1.0E-03
     Exchange-correlation= PBE
                           (   1   4   3   4   0   0   0)
     nstep                     =           50


     celldm(1)=   4.330000  celldm(2)=   0.000000  celldm(3)=   9.353349
     celldm(4)=   0.000000  celldm(5)=   0.000000  celldm(6)=   0.000000

     crystal axes: (cart. coord. in units of alat)
               a(1) = (   1.000000   0.000000   0.000000 )  
               a(2) = (  -0.500000   0.866025   0.000000 )  
               a(3) = (   0.000000   0.000000   9.353349 )  

     reciprocal axes: (cart. coord. in units 2 pi/alat)
               b(1) = (  1.000000  0.577350  0.000000 )  
               b(2) = (  0.000000  1.154701  0.000000 )  
               b(3) = (  0.000000  0.000000  0.106914 )  


     PseudoPot. # 1 for C  read from file:
     /home/yhkim/qe-6.7/pseudo/ONCV1/1.2/C_ONCV_PBE-1.2.upf
     MD5 check sum: 1a5f83a7b1f58d24996abe00ed223ac6
     Pseudo is Norm-conserving, Zval =  4.0
     Generated using ONCVPSP code by D. R. Hamann
     Using radial grid of  602 points,  4 beta functions with: 
                l(1) =   0
                l(2) =   0
                l(3) =   1
                l(4) =   1

     atomic species   valence    mass     pseudopotential
        C              4.00    12.01070     C ( 1.00)

     24 Sym. Ops., with inversion, found



   Cartesian axes

     site n.     atom                  positions (alat units)
         1           C   tau(   1) = (  -0.0000000   0.5773503   4.6766744  )
         2           C   tau(   2) = (   0.5000000   0.2886751   4.6766744  )

     number of k points=    27  Methfessel-Paxton smearing, width (Ry)=  0.0100
                       cart. coord. in units 2pi/alat
        k(    1) = (   0.0000000   0.0000000   0.0000000), wk =   0.0088889
        k(    2) = (   0.0000000   0.0769800   0.0000000), wk =   0.0533333
        k(    3) = (   0.0000000   0.1539601   0.0000000), wk =   0.0533333
        k(    4) = (   0.0000000   0.2309401   0.0000000), wk =   0.0533333
        k(    5) = (   0.0000000   0.3079201   0.0000000), wk =   0.0533333
        k(    6) = (   0.0000000   0.3849002   0.0000000), wk =   0.0533333
        k(    7) = (   0.0000000   0.4618802   0.0000000), wk =   0.0533333
        k(    8) = (   0.0000000   0.5388603   0.0000000), wk =   0.0533333
        k(    9) = (   0.0666667   0.1154701   0.0000000), wk =   0.0533333
        k(   10) = (   0.0666667   0.1924501   0.0000000), wk =   0.1066667
        k(   11) = (   0.0666667   0.2694301   0.0000000), wk =   0.1066667
        k(   12) = (   0.0666667   0.3464102   0.0000000), wk =   0.1066667
        k(   13) = (   0.0666667   0.4233902   0.0000000), wk =   0.1066667
        k(   14) = (   0.0666667   0.5003702   0.0000000), wk =   0.1066667
        k(   15) = (   0.0666667   0.5773503   0.0000000), wk =   0.0533333
        k(   16) = (   0.1333333   0.2309401   0.0000000), wk =   0.0533333
        k(   17) = (   0.1333333   0.3079201   0.0000000), wk =   0.1066667
        k(   18) = (   0.1333333   0.3849002   0.0000000), wk =   0.1066667
        k(   19) = (   0.1333333   0.4618802   0.0000000), wk =   0.1066667
        k(   20) = (   0.1333333   0.5388603   0.0000000), wk =   0.1066667
        k(   21) = (   0.2000000   0.3464102   0.0000000), wk =   0.0533333
        k(   22) = (   0.2000000   0.4233902   0.0000000), wk =   0.1066667
        k(   23) = (   0.2000000   0.5003702   0.0000000), wk =   0.1066667
        k(   24) = (   0.2000000   0.5773503   0.0000000), wk =   0.0533333
        k(   25) = (   0.2666667   0.4618802   0.0000000), wk =   0.0533333
        k(   26) = (   0.2666667   0.5388603   0.0000000), wk =   0.1066667
        k(   27) = (   0.3333333   0.5773503   0.0000000), wk =   0.0177778

     Dense  grid:    31443 G-vectors     FFT dimensions: (  20,  20, 192)

     Estimated max dynamical RAM per process >       1.75 MB

     Estimated total dynamical RAM >      55.91 MB
 ----2D----2D----2D----2D----2D----2D----2D----2D----2D----2D----2D----2D
  The code is running with the 2D cutoff
  Please refer to:
  Sohier, T., Calandra, M., & Mauri, F. (2017), 
  Density functional perturbation theory for gated two-dimensional heterostructu
 res:
  Theoretical developments and application to flexural phonons in graphene.
  Physical Review B, 96(7), 75448. https://doi.org/10.1103/PhysRevB.96.075448
 ----2D----2D----2D----2D----2D----2D----2D----2D----2D----2D----2D----2D

     Initial potential from superposition of free atoms

     starting charge    7.98607, renormalised to    8.00000

     negative rho (up, down):  1.049E-04 0.000E+00
     Starting wfcs are random

     total cpu time spent up to now is        0.1 secs

     Self-consistent Calculation

     iteration #  1     ecut=    50.00 Ry     beta= 0.70
     Davidson diagonalization with overlap
     ethr =  1.00E-02,  avg # of iterations = 12.4

     negative rho (up, down):  1.244E-07 0.000E+00

     total cpu time spent up to now is        0.6 secs

     total energy              =     -22.68109648 Ry
     estimated scf accuracy    <       0.30490074 Ry

     iteration #  2     ecut=    50.00 Ry     beta= 0.70
     Davidson diagonalization with overlap
     ethr =  3.81E-03,  avg # of iterations =  2.1

     total cpu time spent up to now is        0.7 secs

     total energy              =     -22.72644229 Ry
     estimated scf accuracy    <       0.00240585 Ry

     iteration #  3     ecut=    50.00 Ry     beta= 0.70
     Davidson diagonalization with overlap
     ethr =  3.01E-05,  avg # of iterations = 11.1

     total cpu time spent up to now is        1.0 secs

     total energy              =     -22.72779916 Ry
     estimated scf accuracy    <       0.00015727 Ry

     iteration #  4     ecut=    50.00 Ry     beta= 0.70
     Davidson diagonalization with overlap
     ethr =  1.97E-06,  avg # of iterations =  5.4

     total cpu time spent up to now is        1.2 secs

     total energy              =     -22.72783241 Ry
     estimated scf accuracy    <       0.00000149 Ry

     iteration #  5     ecut=    50.00 Ry     beta= 0.70
     Davidson diagonalization with overlap
     ethr =  1.86E-08,  avg # of iterations =  3.9

     total cpu time spent up to now is        1.3 secs

     total energy              =     -22.72783506 Ry
     estimated scf accuracy    <       0.00000012 Ry

     iteration #  6     ecut=    50.00 Ry     beta= 0.70
     Davidson diagonalization with overlap
     ethr =  1.55E-09,  avg # of iterations =  2.0

     total cpu time spent up to now is        1.5 secs

     End of self-consistent calculation

          k = 0.0000 0.0000 0.0000 (  3907 PWs)   bands (ev):

   -24.9442 -12.7911  -6.5010  -1.0206  -0.2090   0.5668   0.9223   2.2473

          k = 0.0000 0.0770 0.0000 (  3895 PWs)   bands (ev):

   -24.8255 -12.6405  -6.9676  -6.7816  -0.8562  -0.0410   0.7353   1.0907

          k = 0.0000 0.1540 0.0000 (  3883 PWs)   bands (ev):

   -24.4703 -12.1934  -8.2160  -7.4827  -0.3622   0.4626   1.2409   1.5954

          k = 0.0000 0.2309 0.0000 (  3903 PWs)   bands (ev):

   -23.8809 -11.4564  -9.9483  -8.3529   0.4614   1.2999   2.0838   2.4349

          k = 0.0000 0.3079 0.0000 (  3916 PWs)   bands (ev):

   -23.0608 -11.8960 -10.4449  -9.1918   1.6131   2.4598   3.2635   3.5924

          k = 0.0000 0.3849 0.0000 (  3902 PWs)   bands (ev):

   -22.0157 -13.8865  -9.8817  -9.1927   2.2629   3.0886   4.0233   4.7779

          k = 0.0000 0.4619 0.0000 (  3924 PWs)   bands (ev):

   -20.7563 -15.8191 -10.3685  -7.7973   0.0818   4.8731   5.8361   6.2232

          k = 0.0000 0.5389 0.0000 (  3942 PWs)   bands (ev):

   -19.2983 -17.6255 -10.6179  -6.6031  -1.5368   6.1189   7.0428   7.9821

          k = 0.0667 0.1155 0.0000 (  3893 PWs)   bands (ev):

   -24.5886 -12.3422  -7.7587  -7.3394  -0.5268   0.2948   1.0724   1.4272

          k = 0.0667 0.1925 0.0000 (  3903 PWs)   bands (ev):

   -24.1163 -11.7500  -9.1436  -8.2297   0.1326   0.9655   1.7469   2.0995

          k = 0.0667 0.2694 0.0000 (  3910 PWs)   bands (ev):

   -23.4116 -10.9196 -10.8748  -9.1412   1.1212   1.9674   2.7585   3.1043

          k = 0.0667 0.3464 0.0000 (  3908 PWs)   bands (ev):

   -22.4794 -12.8597  -9.9296  -9.7382   2.4361   3.1414   3.5488   4.1066

          k = 0.0667 0.4234 0.0000 (  3928 PWs)   bands (ev):

   -21.3270 -14.8081 -10.5279  -8.3973   1.1075   4.0714   4.9975   5.7864

          k = 0.0667 0.5004 0.0000 (  3939 PWs)   bands (ev):

   -19.9684 -16.6721 -10.8975  -7.0214  -0.8594   5.9959   6.7230   6.9777

          k = 0.0667 0.5774 0.0000 (  3930 PWs)   bands (ev):

   -18.5426 -18.2689 -11.0227  -6.2749  -1.8109   6.6327   8.2296   8.3730

          k = 0.1333 0.2309 0.0000 (  3903 PWs)   bands (ev):

   -23.5289 -11.0186 -10.3225  -9.4084   0.9578   1.8020   2.5903   2.9386

          k = 0.1333 0.3079 0.0000 (  3892 PWs)   bands (ev):

   -22.7122 -11.8864 -10.4697 -10.0144   2.1107   2.9637   3.7710   4.0568

          k = 0.1333 0.3849 0.0000 (  3908 PWs)   bands (ev):

   -21.6727 -13.7102 -11.2313  -8.7706   2.0073   3.5872   4.4743   5.2877

          k = 0.1333 0.4619 0.0000 (  3932 PWs)   bands (ev):

   -20.4224 -15.5635 -11.7337  -7.3751  -0.0364   5.3787   6.2758   7.1364

          k = 0.1333 0.5389 0.0000 (  3953 PWs)   bands (ev):

   -18.9819 -17.3249 -11.9864  -6.1555  -1.6039   7.4547   8.0453   8.3079

          k = 0.2000 0.3464 0.0000 (  3911 PWs)   bands (ev):

   -21.7885 -12.9283 -11.9099  -8.8979   2.3954   3.4252   4.2870   5.1202

          k = 0.2000 0.4234 0.0000 (  3938 PWs)   bands (ev):

   -20.6515 -14.4167 -12.8116  -7.5728   0.5701   5.0568   5.8974   6.8043

          k = 0.2000 0.5004 0.0000 (  3963 PWs)   bands (ev):

   -19.3180 -16.1228 -13.2416  -6.1777  -1.1605   6.9892   7.6278   8.8246

          k = 0.2000 0.5774 0.0000 (  3983 PWs)   bands (ev):

   -17.9733 -17.6078 -13.3768  -5.3630  -2.0961   8.4380   9.0951   9.2579

          k = 0.2667 0.4619 0.0000 (  3951 PWs)   bands (ev):

   -19.4308 -15.1416 -14.2567  -6.2026  -0.9292   6.8279   7.3416   8.6332

          k = 0.2667 0.5389 0.0000 (  3974 PWs)   bands (ev):

   -18.0483 -16.4752 -14.8092  -4.8750  -2.3186   7.7148   8.8505  10.3370

          k = 0.3333 0.5774 0.0000 (  4005 PWs)   bands (ev):

   -16.8367 -16.8367 -15.8914  -3.5618  -3.5618   7.4256  10.6483  10.6484

     the Fermi energy is    -3.5194 ev

!    total energy              =     -22.72783509 Ry
     estimated scf accuracy    <          6.1E-09 Ry
     smearing contrib. (-TS)   =      -0.00003668 Ry
     internal energy E=F+TS    =     -22.72779842 Ry

     The total energy is F=E-TS. E is the sum of the following terms:
     one-electron contribution =    -448.77647964 Ry
     hartree contribution      =     225.17008477 Ry
     xc contribution           =      -7.33981305 Ry
     ewald contribution        =     208.21840950 Ry

     convergence has been achieved in   6 iterations

     Forces acting on atoms (cartesian axes, Ry/au):

     atom    1 type  1   force =     0.00000000    0.00000000    0.00000000
     atom    2 type  1   force =     0.00000000    0.00000000    0.00000000

     Total force =     0.000000     Total SCF correction =     0.000000


     Computing stress (Cartesian axis) and pressure

          total   stress  (Ry/bohr**3)                   (kbar)     P=      106.90
   0.00115498   0.00000000   0.00000000          169.90        0.00        0.00
   0.00000000   0.00115498   0.00000000            0.00      169.90        0.00
   0.00000000   0.00000000  -0.00012994            0.00        0.00      -19.11


     BFGS Geometry Optimization
     Energy error            =      0.0E+00
     Gradient error          =      0.0E+00
     Cell gradient error     =      1.2E-03


     number of scf cycles    =   1
     number of bfgs steps    =   0

     enthalpy new            =     -22.7278350934 Ry

     new trust radius        =       0.1480898156 bohr
     new conv_thr            =       0.0000000100 Ry

     new unit-cell volume =    696.12344 a.u.^3 (   103.15485 Ang^3 )
     density =      0.38669 g/cm^3

CELL_PARAMETERS (alat=  4.33000000)
   1.028874500   0.000000000   0.000000000
  -0.514437250   0.891031455   0.000000000
   0.000000000   0.000000000   9.353348730

ATOMIC_POSITIONS (crystal)
C             0.3333333333        0.6666666667        0.5000000000
C             0.6666666667        0.3333333333        0.5000000000



     Writing output data file ./work/LiC433.save/
     NEW-OLD atomic charge density approx. for the potential

     negative rho (up, down):  6.973E-05 0.000E+00
     extrapolated charge    8.44195, renormalised to    8.00000

     total cpu time spent up to now is        1.5 secs

     Self-consistent Calculation

     iteration #  1     ecut=    50.00 Ry     beta= 0.70
     Davidson diagonalization with overlap
     c_bands:  1 eigenvalues not converged
     c_bands:  2 eigenvalues not converged
     c_bands:  2 eigenvalues not converged
     c_bands:  2 eigenvalues not converged
     c_bands:  3 eigenvalues not converged
     c_bands:  3 eigenvalues not converged
     c_bands:  1 eigenvalues not converged
     c_bands:  2 eigenvalues not converged
     c_bands:  4 eigenvalues not converged
     c_bands:  3 eigenvalues not converged
     c_bands:  4 eigenvalues not converged
     c_bands:  5 eigenvalues not converged
     c_bands:  2 eigenvalues not converged
     c_bands:  2 eigenvalues not converged
     c_bands:  3 eigenvalues not converged
     c_bands:  4 eigenvalues not converged
     c_bands:  4 eigenvalues not converged
     c_bands:  3 eigenvalues not converged
     c_bands:  3 eigenvalues not converged
     c_bands:  5 eigenvalues not converged
     c_bands:  4 eigenvalues not converged
     c_bands:  5 eigenvalues not converged
     c_bands:  5 eigenvalues not converged
     c_bands:  5 eigenvalues not converged
     ethr =  1.00E-06,  avg # of iterations = 19.6

     negative rho (up, down):  2.047E-06 0.000E+00

     total cpu time spent up to now is        2.3 secs

     total energy              =     643.88770062 Ry
     estimated scf accuracy    <     370.54864245 Ry

     iteration #  2     ecut=    50.00 Ry     beta= 0.70
     Davidson diagonalization with overlap
     c_bands:  3 eigenvalues not converged
     c_bands:  3 eigenvalues not converged
     c_bands:  1 eigenvalues not converged
     c_bands:  3 eigenvalues not converged
     c_bands:  2 eigenvalues not converged
     c_bands:  4 eigenvalues not converged
     c_bands:  1 eigenvalues not converged
     c_bands:  1 eigenvalues not converged
     c_bands:  2 eigenvalues not converged
     c_bands:  3 eigenvalues not converged
     ethr =  1.00E-02,  avg # of iterations = 38.4

     negative rho (up, down):  5.212E-07 0.000E+00

     total cpu time spent up to now is        3.8 secs

     total energy              =    -145.56906363 Ry
     estimated scf accuracy    <     188.76907889 Ry

     iteration #  3     ecut=    50.00 Ry     beta= 0.70
     Davidson diagonalization with overlap
     ethr =  1.00E-02,  avg # of iterations =  5.6

     negative rho (up, down):  3.108E-08 0.000E+00

     total cpu time spent up to now is        4.0 secs

     total energy              =     -50.87607473 Ry
     estimated scf accuracy    <      65.26657026 Ry

     iteration #  4     ecut=    50.00 Ry     beta= 0.70
     Davidson diagonalization with overlap
     ethr =  1.00E-02,  avg # of iterations =  3.2

     negative rho (up, down):  4.068E-08 0.000E+00

     total cpu time spent up to now is        4.1 secs

     total energy              =     -49.93946626 Ry
     estimated scf accuracy    <      15.12506109 Ry

     iteration #  5     ecut=    50.00 Ry     beta= 0.70
     Davidson diagonalization with overlap
     ethr =  1.00E-02,  avg # of iterations =  1.0

     total cpu time spent up to now is        4.2 secs

     total energy              =     -25.54471764 Ry
     estimated scf accuracy    <      14.47719266 Ry

     iteration #  6     ecut=    50.00 Ry     beta= 0.70
     Davidson diagonalization with overlap
     ethr =  1.00E-02,  avg # of iterations =  3.9

     total cpu time spent up to now is        4.4 secs

     total energy              =     -34.31399166 Ry
     estimated scf accuracy    <       1.63757816 Ry

     iteration #  7     ecut=    50.00 Ry     beta= 0.70
     Davidson diagonalization with overlap
     ethr =  1.00E-02,  avg # of iterations =  1.2

     total cpu time spent up to now is        4.5 secs

     total energy              =     -35.31927078 Ry
     estimated scf accuracy    <       6.08532604 Ry

     iteration #  8     ecut=    50.00 Ry     beta= 0.70
     Davidson diagonalization with overlap
     ethr =  1.00E-02,  avg # of iterations =  1.0

     negative rho (up, down):  1.608E-08 0.000E+00

     total cpu time spent up to now is        4.6 secs

     total energy              =     -34.86650800 Ry
     estimated scf accuracy    <       6.59527614 Ry

     iteration #  9     ecut=    50.00 Ry     beta= 0.70
     Davidson diagonalization with overlap
     ethr =  1.00E-02,  avg # of iterations =  1.0

     negative rho (up, down):  4.267E-02 0.000E+00

     total cpu time spent up to now is        4.7 secs

     total energy              =     -22.58362935 Ry
     estimated scf accuracy    <       6.44350716 Ry

     iteration # 10     ecut=    50.00 Ry     beta= 0.70
     Davidson diagonalization with overlap
     ethr =  1.00E-02,  avg # of iterations = 10.4

     total cpu time spent up to now is        5.0 secs

     total energy              =     -21.47427632 Ry
     estimated scf accuracy    <      17.34705648 Ry

     iteration # 11     ecut=    50.00 Ry     beta= 0.70
     Davidson diagonalization with overlap
     ethr =  1.00E-02,  avg # of iterations =  2.7

     negative rho (up, down):  2.191E-04 0.000E+00

     total cpu time spent up to now is        5.1 secs

     total energy              =     -22.76440673 Ry
     estimated scf accuracy    <       0.00627055 Ry

     iteration # 12     ecut=    50.00 Ry     beta= 0.70
     Davidson diagonalization with overlap
     c_bands:  1 eigenvalues not converged
     ethr =  7.84E-05,  avg # of iterations = 11.1

     negative rho (up, down):  1.047E-03 0.000E+00

     total cpu time spent up to now is        5.4 secs

     total energy              =     -22.75974099 Ry
     estimated scf accuracy    <       0.00928370 Ry

     iteration # 13     ecut=    50.00 Ry     beta= 0.70
     Davidson diagonalization with overlap
     ethr =  7.84E-05,  avg # of iterations =  3.4

     negative rho (up, down):  1.025E-02 0.000E+00

     total cpu time spent up to now is        5.6 secs

     total energy              =     -22.76410735 Ry
     estimated scf accuracy    <       0.00624292 Ry

     iteration # 14     ecut=    50.00 Ry     beta= 0.70
     Davidson diagonalization with overlap
     ethr =  7.80E-05,  avg # of iterations =  4.2

     negative rho (up, down):  1.425E-01 0.000E+00

     total cpu time spent up to now is        5.7 secs

     total energy              =     -22.88624048 Ry
     estimated scf accuracy    <       0.01322249 Ry

     iteration # 15     ecut=    50.00 Ry     beta= 0.70
     Davidson diagonalization with overlap
     ethr =  7.80E-05,  avg # of iterations =  7.0

     negative rho (up, down):  1.654E-02 0.000E+00

     total cpu time spent up to now is        6.0 secs

     total energy              =     -22.66046319 Ry
     estimated scf accuracy    <       0.48345811 Ry

     iteration # 16     ecut=    50.00 Ry     beta= 0.70
     Davidson diagonalization with overlap
     ethr =  7.80E-05,  avg # of iterations =  7.5

     negative rho (up, down):  1.940E-02 0.000E+00

     total cpu time spent up to now is        6.2 secs

     total energy              =     -22.76648667 Ry
     estimated scf accuracy    <       0.00916768 Ry

     iteration # 17     ecut=    50.00 Ry     beta= 0.70
     Davidson diagonalization with overlap
     c_bands:  1 eigenvalues not converged
     ethr =  7.80E-05,  avg # of iterations =  5.3

     negative rho (up, down):  1.424E-02 0.000E+00

     total cpu time spent up to now is        6.4 secs

     total energy              =     -22.76398328 Ry
     estimated scf accuracy    <       0.00480718 Ry

     iteration # 18     ecut=    50.00 Ry     beta= 0.70
     Davidson diagonalization with overlap
     ethr =  6.01E-05,  avg # of iterations =  3.3

     negative rho (up, down):  1.151E-02 0.000E+00

     total cpu time spent up to now is        6.5 secs

     total energy              =     -22.76331466 Ry
     estimated scf accuracy    <       0.00173792 Ry

     iteration # 19     ecut=    50.00 Ry     beta= 0.70
     Davidson diagonalization with overlap
     ethr =  2.17E-05,  avg # of iterations =  4.8

     negative rho (up, down):  5.143E-03 0.000E+00

     total cpu time spent up to now is        6.7 secs

     total energy              =     -22.76236307 Ry
     estimated scf accuracy    <       0.00135288 Ry

     iteration # 20     ecut=    50.00 Ry     beta= 0.70
     Davidson diagonalization with overlap
     ethr =  1.69E-05,  avg # of iterations =  8.9

     negative rho (up, down):  4.623E-03 0.000E+00

     total cpu time spent up to now is        6.9 secs

     total energy              =     -22.76229678 Ry
     estimated scf accuracy    <       0.00054552 Ry

     iteration # 21     ecut=    50.00 Ry     beta= 0.70
     Davidson diagonalization with overlap
     ethr =  6.82E-06,  avg # of iterations =  1.6

     negative rho (up, down):  4.053E-03 0.000E+00

     total cpu time spent up to now is        7.0 secs

     total energy              =     -22.76222981 Ry
     estimated scf accuracy    <       0.00044201 Ry

     iteration # 22     ecut=    50.00 Ry     beta= 0.70
     Davidson diagonalization with overlap
     ethr =  5.53E-06,  avg # of iterations =  4.7

     negative rho (up, down):  7.891E-04 0.000E+00

     total cpu time spent up to now is        7.1 secs

     total energy              =     -22.76198070 Ry
     estimated scf accuracy    <       0.00035197 Ry

     iteration # 23     ecut=    50.00 Ry     beta= 0.70
     Davidson diagonalization with overlap
     ethr =  4.40E-06,  avg # of iterations =  6.1

     negative rho (up, down):  6.256E-05 0.000E+00

     total cpu time spent up to now is        7.3 secs

     total energy              =     -22.76197483 Ry
     estimated scf accuracy    <       0.00004093 Ry

     iteration # 24     ecut=    50.00 Ry     beta= 0.70
     Davidson diagonalization with overlap
     c_bands:  1 eigenvalues not converged
     c_bands:  1 eigenvalues not converged
     ethr =  5.12E-07,  avg # of iterations =  8.1

     negative rho (up, down):  3.873E-06 0.000E+00

     total cpu time spent up to now is        7.5 secs

     total energy              =     -22.76198516 Ry
     estimated scf accuracy    <       0.00000682 Ry

     iteration # 25     ecut=    50.00 Ry     beta= 0.70
     Davidson diagonalization with overlap
     ethr =  8.53E-08,  avg # of iterations =  3.3

     total cpu time spent up to now is        7.7 secs

     total energy              =     -22.76198604 Ry
     estimated scf accuracy    <       0.00000004 Ry

     iteration # 26     ecut=    50.00 Ry     beta= 0.70
     Davidson diagonalization with overlap
     ethr =  4.91E-10,  avg # of iterations =  3.0

     total cpu time spent up to now is        7.8 secs

     End of self-consistent calculation

          k = 0.0000 0.0000 0.0000 (  3907 PWs)   bands (ev):

   -24.4910 -12.4154  -6.8154  -6.8154  -1.0053  -0.2060   0.5799   0.9380

          k =-0.0000 0.0748 0.0000 (  3895 PWs)   bands (ev):

   -24.3775 -12.2744  -7.2653  -7.0726  -0.8497  -0.0474   0.7390   1.0969

          k =-0.0000 0.1496 0.0000 (  3883 PWs)   bands (ev):

   -24.0381 -11.8563  -8.4659  -7.7170  -0.3825   0.4276   1.2166   1.5731

          k =-0.0000 0.2245 0.0000 (  3903 PWs)   bands (ev):

   -23.4750 -11.1678 -10.1291  -8.5223   0.3961   1.2173   2.0127   2.3648

          k =-0.0000 0.2993 0.0000 (  3916 PWs)   bands (ev):

   -22.6918 -11.9945 -10.2239  -9.3014   1.4843   2.3063   3.1266   3.4302

          k =-0.0000 0.3741 0.0000 (  3902 PWs)   bands (ev):

   -21.6942 -13.8974  -9.9427  -9.0577   1.6378   2.8772   3.7758   4.5512

          k =-0.0000 0.4489 0.0000 (  3924 PWs)   bands (ev):

   -20.4958 -15.7404 -10.3965  -7.7641  -0.3728   4.5345   5.0766   5.4912

          k =-0.0000 0.5237 0.0000 (  3942 PWs)   bands (ev):

   -19.1309 -17.4391 -10.6287  -6.6674  -1.8541   4.9235   6.5923   7.5093

          k = 0.0648 0.1122 0.0000 (  3893 PWs)   bands (ev):

   -24.1512 -11.9956  -8.0298  -7.5849  -0.5382   0.2693   1.0575   1.4144

          k = 0.0648 0.1870 0.0000 (  3903 PWs)   bands (ev):

   -23.6999 -11.4420  -9.3640  -8.4089   0.0852   0.9020   1.6945   2.0487

          k = 0.0648 0.2619 0.0000 (  3910 PWs)   bands (ev):

   -23.0268 -11.0641 -10.6249  -9.2600   1.0194   1.8463   2.6499   2.9952

          k = 0.0648 0.3367 0.0000 (  3908 PWs)   bands (ev):

   -22.1367 -12.9188  -9.9979  -9.5652   2.2615   2.5854   3.1789   3.9224

          k = 0.0648 0.4115 0.0000 (  3928 PWs)   bands (ev):

   -21.0378 -14.7785 -10.5583  -8.3189   0.5613   3.8041   4.6998   5.4669

          k = 0.0648 0.4863 0.0000 (  3939 PWs)   bands (ev):

   -19.7503 -16.5497 -10.9044  -7.0479  -1.2434   5.3866   5.7407   6.5640

          k = 0.0648 0.5611 0.0000 (  3930 PWs)   bands (ev):

   -18.5367 -17.9264 -11.0217  -6.3660  -2.1104   5.4109   7.7177   7.8652

          k = 0.1296 0.2245 0.0000 (  3903 PWs)   bands (ev):

   -23.1388 -10.7591 -10.5139  -9.5000   0.8648   1.6909   2.4911   2.8401

          k = 0.1296 0.2993 0.0000 (  3892 PWs)   bands (ev):

   -22.3588 -12.0098 -10.5029  -9.8223   1.9540   2.7809   3.3121   3.6061

          k = 0.1296 0.3741 0.0000 (  3908 PWs)   bands (ev):

   -21.3669 -13.7418 -11.2339  -8.6644   1.3654   3.3484   4.2062   5.0378

          k = 0.1296 0.4489 0.0000 (  3932 PWs)   bands (ev):

   -20.1777 -15.5022 -11.7143  -7.3702  -0.5115   5.0381   5.9006   6.7474

          k = 0.1296 0.5237 0.0000 (  3953 PWs)   bands (ev):

   -18.8317 -17.1535 -11.9556  -6.2488  -1.9453   6.7220   7.0603   7.7933

          k = 0.1944 0.3367 0.0000 (  3911 PWs)   bands (ev):

   -21.4772 -13.0465 -11.8372  -8.7823   1.7038   3.1953   4.0318   4.8800

          k = 0.1944 0.4115 0.0000 (  3938 PWs)   bands (ev):

   -20.3945 -14.4473 -12.7170  -7.5511   0.0192   4.7353   5.5438   6.4696

          k = 0.1944 0.4863 0.0000 (  3963 PWs)   bands (ev):

   -19.1332 -16.0429 -13.1506  -6.2605  -1.5732   6.5560   7.1510   8.3611

          k = 0.1944 0.5611 0.0000 (  3983 PWs)   bands (ev):

   -17.9777 -17.3271 -13.2856  -5.5136  -2.4286   7.8903   8.5132   8.5222

          k = 0.2592 0.4489 0.0000 (  3951 PWs)   bands (ev):

   -19.2371 -15.2051 -14.0294  -6.2798  -1.3792   6.4046   6.8862   8.1766

          k = 0.2592 0.5237 0.0000 (  3974 PWs)   bands (ev):

   -17.9512 -16.4072 -14.5976  -5.0528  -2.6666   7.2515   8.2996   9.7699

          k = 0.3240 0.5611 0.0000 (  4005 PWs)   bands (ev):

   -16.8634 -16.8634 -15.4545  -3.8317  -3.8317   7.0017   9.8932   9.8932

     the Fermi energy is    -3.8317 ev

!    total energy              =     -22.76198609 Ry
     estimated scf accuracy    <          2.8E-09 Ry
     smearing contrib. (-TS)   =      -0.00005015 Ry
     internal energy E=F+TS    =     -22.76193594 Ry

     The total energy is F=E-TS. E is the sum of the following terms:
     one-electron contribution =    -423.61106749 Ry
     hartree contribution      =     212.52255223 Ry
     xc contribution           =      -7.20863851 Ry
     ewald contribution        =     195.53521783 Ry

     convergence has been achieved in  26 iterations

     Forces acting on atoms (cartesian axes, Ry/au):

     atom    1 type  1   force =     0.00000000    0.00000000    0.00000000
     atom    2 type  1   force =     0.00000000    0.00000000    0.00000000

     Total force =     0.000000     Total SCF correction =     0.000000


     Computing stress (Cartesian axis) and pressure

          total   stress  (Ry/bohr**3)                   (kbar)     P=       46.80
   0.00054326   0.00000000  -0.00000000           79.92        0.00       -0.00
   0.00000000   0.00054326   0.00000000            0.00       79.92        0.00
   0.00000000  -0.00000000  -0.00013215            0.00       -0.00      -19.44

     Energy error            =      3.4E-02
     Gradient error          =      0.0E+00
     Cell gradient error     =      5.4E-04


     number of scf cycles    =   2
     number of bfgs steps    =   1

     enthalpy old            =     -22.7278350934 Ry
     enthalpy new            =     -22.7619860886 Ry

     CASE: enthalpy_new < enthalpy_old

     new trust radius        =       0.1388762312 bohr
     new conv_thr            =            1.0E-10 Ry

     new unit-cell volume =    733.24692 a.u.^3 (   108.65598 Ang^3 )
     density =      0.36711 g/cm^3

CELL_PARAMETERS (alat=  4.33000000)
   1.055952539   0.000000000   0.000000000
  -0.527976270   0.914481724   0.000000000
   0.000000000   0.000000000   9.353348730

ATOMIC_POSITIONS (crystal)
C             0.3333333333        0.6666666667        0.5000000000
C             0.6666666667        0.3333333333        0.5000000000



     Writing output data file ./work/LiC433.save/
     NEW-OLD atomic charge density approx. for the potential

     negative rho (up, down):  6.423E-05 0.000E+00
     extrapolated charge    8.40433, renormalised to    8.00000

     total cpu time spent up to now is        7.9 secs

     Self-consistent Calculation

     iteration #  1     ecut=    50.00 Ry     beta= 0.70
     Davidson diagonalization with overlap
     c_bands:  1 eigenvalues not converged
     c_bands:  1 eigenvalues not converged
     c_bands:  2 eigenvalues not converged
     c_bands:  4 eigenvalues not converged
     c_bands:  1 eigenvalues not converged
     c_bands:  1 eigenvalues not converged
     c_bands:  3 eigenvalues not converged
     c_bands:  4 eigenvalues not converged
     c_bands:  2 eigenvalues not converged
     c_bands:  2 eigenvalues not converged
     c_bands:  1 eigenvalues not converged
     c_bands:  3 eigenvalues not converged
     c_bands:  3 eigenvalues not converged
     c_bands:  3 eigenvalues not converged
     c_bands:  1 eigenvalues not converged
     c_bands:  1 eigenvalues not converged
     c_bands:  5 eigenvalues not converged
     c_bands:  4 eigenvalues not converged
     c_bands:  3 eigenvalues not converged
     ethr =  1.00E-06,  avg # of iterations = 20.7

     negative rho (up, down):  8.431E-07 0.000E+00

     total cpu time spent up to now is        8.6 secs

     total energy              =     598.32531293 Ry
     estimated scf accuracy    <     346.45851127 Ry

     iteration #  2     ecut=    50.00 Ry     beta= 0.70
     Davidson diagonalization with overlap
     c_bands:  1 eigenvalues not converged
     c_bands:  5 eigenvalues not converged
     c_bands:  1 eigenvalues not converged
     c_bands:  4 eigenvalues not converged
     c_bands:  5 eigenvalues not converged
     c_bands:  1 eigenvalues not converged
     c_bands:  5 eigenvalues not converged
     c_bands:  3 eigenvalues not converged
     c_bands:  1 eigenvalues not converged
     ethr =  1.00E-02,  avg # of iterations = 36.3

     negative rho (up, down):  1.620E-07 0.000E+00

     total cpu time spent up to now is       10.0 secs

     total energy              =    -136.98803999 Ry
     estimated scf accuracy    <     176.64193764 Ry

     iteration #  3     ecut=    50.00 Ry     beta= 0.70
     Davidson diagonalization with overlap
     c_bands:  2 eigenvalues not converged
     ethr =  1.00E-02,  avg # of iterations =  5.0

     total cpu time spent up to now is       10.2 secs

     total energy              =     -49.89152232 Ry
     estimated scf accuracy    <      61.05321678 Ry

     iteration #  4     ecut=    50.00 Ry     beta= 0.70
     Davidson diagonalization with overlap
     ethr =  1.00E-02,  avg # of iterations =  4.7

     negative rho (up, down):  1.541E-08 0.000E+00

     total cpu time spent up to now is       10.4 secs

     total energy              =     -50.05639020 Ry
     estimated scf accuracy    <      14.70624401 Ry

     iteration #  5     ecut=    50.00 Ry     beta= 0.70
     Davidson diagonalization with overlap
     ethr =  1.00E-02,  avg # of iterations =  1.0

     total cpu time spent up to now is       10.5 secs

     total energy              =     -25.28763460 Ry
     estimated scf accuracy    <      14.63460848 Ry

     iteration #  6     ecut=    50.00 Ry     beta= 0.70
     Davidson diagonalization with overlap
     ethr =  1.00E-02,  avg # of iterations =  3.6

     total cpu time spent up to now is       10.6 secs

     total energy              =     -28.70799108 Ry
     estimated scf accuracy    <       1.53571185 Ry

     iteration #  7     ecut=    50.00 Ry     beta= 0.70
     Davidson diagonalization with overlap
     ethr =  1.00E-02,  avg # of iterations =  1.1

     total cpu time spent up to now is       10.8 secs

     total energy              =     -28.40336101 Ry
     estimated scf accuracy    <       3.16842809 Ry

     iteration #  8     ecut=    50.00 Ry     beta= 0.70
     Davidson diagonalization with overlap
     ethr =  1.00E-02,  avg # of iterations =  1.0

     total cpu time spent up to now is       10.9 secs

     total energy              =     -27.82743433 Ry
     estimated scf accuracy    <       3.00190583 Ry

     iteration #  9     ecut=    50.00 Ry     beta= 0.70
     Davidson diagonalization with overlap
     ethr =  1.00E-02,  avg # of iterations =  1.0

     total cpu time spent up to now is       11.0 secs

     total energy              =     -22.67671221 Ry
     estimated scf accuracy    <       2.71326583 Ry

     iteration # 10     ecut=    50.00 Ry     beta= 0.70
     Davidson diagonalization with overlap
     ethr =  1.00E-02,  avg # of iterations =  3.1

     negative rho (up, down):  8.298E-08 0.000E+00

     total cpu time spent up to now is       11.1 secs

     total energy              =     -22.77228905 Ry
     estimated scf accuracy    <       0.01791672 Ry

     iteration # 11     ecut=    50.00 Ry     beta= 0.70
     Davidson diagonalization with overlap
     ethr =  2.24E-04,  avg # of iterations = 11.7

     negative rho (up, down):  8.912E-05 0.000E+00

     total cpu time spent up to now is       11.4 secs

     total energy              =     -22.77302304 Ry
     estimated scf accuracy    <       0.00719475 Ry

     iteration # 12     ecut=    50.00 Ry     beta= 0.70
     Davidson diagonalization with overlap
     ethr =  8.99E-05,  avg # of iterations =  1.2

     negative rho (up, down):  1.174E-04 0.000E+00

     total cpu time spent up to now is       11.5 secs

     total energy              =     -22.77328122 Ry
     estimated scf accuracy    <       0.00319099 Ry

     iteration # 13     ecut=    50.00 Ry     beta= 0.70
     Davidson diagonalization with overlap
     ethr =  3.99E-05,  avg # of iterations =  1.1

     negative rho (up, down):  1.214E-03 0.000E+00

     total cpu time spent up to now is       11.6 secs

     total energy              =     -22.77884981 Ry
     estimated scf accuracy    <       0.00306510 Ry

     iteration # 14     ecut=    50.00 Ry     beta= 0.70
     Davidson diagonalization with overlap
     c_bands:  1 eigenvalues not converged
     ethr =  3.83E-05,  avg # of iterations =  3.9

     negative rho (up, down):  1.359E-03 0.000E+00

     total cpu time spent up to now is       11.8 secs

     total energy              =     -22.77892139 Ry
     estimated scf accuracy    <       0.01562262 Ry

     iteration # 15     ecut=    50.00 Ry     beta= 0.70
     Davidson diagonalization with overlap
     ethr =  3.83E-05,  avg # of iterations =  1.4

     negative rho (up, down):  1.237E-03 0.000E+00

     total cpu time spent up to now is       11.9 secs

     total energy              =     -22.77584941 Ry
     estimated scf accuracy    <       0.01229222 Ry

     iteration # 16     ecut=    50.00 Ry     beta= 0.70
     Davidson diagonalization with overlap
     ethr =  3.83E-05,  avg # of iterations =  1.6

     negative rho (up, down):  9.679E-04 0.000E+00

     total cpu time spent up to now is       12.0 secs

     total energy              =     -22.77538012 Ry
     estimated scf accuracy    <       0.00614345 Ry

     iteration # 17     ecut=    50.00 Ry     beta= 0.70
     Davidson diagonalization with overlap
     ethr =  3.83E-05,  avg # of iterations =  1.0

     negative rho (up, down):  8.391E-04 0.000E+00

     total cpu time spent up to now is       12.1 secs

     total energy              =     -22.77491449 Ry
     estimated scf accuracy    <       0.00476123 Ry

     iteration # 18     ecut=    50.00 Ry     beta= 0.70
     Davidson diagonalization with overlap
     ethr =  3.83E-05,  avg # of iterations =  1.0

     negative rho (up, down):  9.967E-06 0.000E+00

     total cpu time spent up to now is       12.2 secs

     total energy              =     -22.77285027 Ry
     estimated scf accuracy    <       0.00378650 Ry

     iteration # 19     ecut=    50.00 Ry     beta= 0.70
     Davidson diagonalization with overlap
     ethr =  3.83E-05,  avg # of iterations =  7.4

     negative rho (up, down):  3.557E-06 0.000E+00

     total cpu time spent up to now is       12.4 secs

     total energy              =     -22.77328961 Ry
     estimated scf accuracy    <       0.00009333 Ry

     iteration # 20     ecut=    50.00 Ry     beta= 0.70
     Davidson diagonalization with overlap
     c_bands:  1 eigenvalues not converged
     c_bands:  1 eigenvalues not converged
     ethr =  1.17E-06,  avg # of iterations =  6.7

     negative rho (up, down):  3.973E-06 0.000E+00

     total cpu time spent up to now is       12.6 secs

     total energy              =     -22.77330823 Ry
     estimated scf accuracy    <       0.00000650 Ry

     iteration # 21     ecut=    50.00 Ry     beta= 0.70
     Davidson diagonalization with overlap
     c_bands:  1 eigenvalues not converged
     ethr =  8.13E-08,  avg # of iterations =  2.9

     negative rho (up, down):  3.449E-07 0.000E+00

     total cpu time spent up to now is       12.8 secs

     total energy              =     -22.77330984 Ry
     estimated scf accuracy    <       0.00000193 Ry

     iteration # 22     ecut=    50.00 Ry     beta= 0.70
     Davidson diagonalization with overlap
     ethr =  2.41E-08,  avg # of iterations =  1.1

     total cpu time spent up to now is       12.9 secs

     total energy              =     -22.77330967 Ry
     estimated scf accuracy    <       0.00000049 Ry

     iteration # 23     ecut=    50.00 Ry     beta= 0.70
     Davidson diagonalization with overlap
     ethr =  6.08E-09,  avg # of iterations =  2.0

     total cpu time spent up to now is       13.0 secs

     total energy              =     -22.77330976 Ry
     estimated scf accuracy    <       0.00000002 Ry

     iteration # 24     ecut=    50.00 Ry     beta= 0.70
     Davidson diagonalization with overlap
     ethr =  2.19E-10,  avg # of iterations =  2.6

     total cpu time spent up to now is       13.1 secs

     total energy              =     -22.77330976 Ry
     estimated scf accuracy    <          4.2E-10 Ry

     iteration # 25     ecut=    50.00 Ry     beta= 0.70
     Davidson diagonalization with overlap
     ethr =  5.28E-12,  avg # of iterations =  3.2

     total cpu time spent up to now is       13.3 secs

     End of self-consistent calculation

          k = 0.0000 0.0000 0.0000 (  3907 PWs)   bands (ev):

   -24.1006 -12.1023  -7.0904  -7.0904  -0.9941  -0.2108   0.5676   0.9252

          k =-0.0000 0.0729 0.0000 (  3895 PWs)   bands (ev):

   -23.9919 -11.9696  -7.5273  -7.3278  -0.8462  -0.0605   0.7187   1.0759

          k =-0.0000 0.1458 0.0000 (  3883 PWs)   bands (ev):

   -23.6666 -11.5767  -8.6893  -7.9241  -0.4021   0.3900   1.1722   1.5275

          k =-0.0000 0.2187 0.0000 (  3903 PWs)   bands (ev):

   -23.1276 -10.9302 -10.2943  -8.6741   0.3376   1.1385   1.9279   2.2778

          k =-0.0000 0.2916 0.0000 (  3916 PWs)   bands (ev):

   -22.3780 -12.0880 -10.0450  -9.4021   1.3710   2.1617   2.9846   3.0562

          k =-0.0000 0.3645 0.0000 (  3902 PWs)   bands (ev):

   -21.4242 -13.9127 -10.0018  -8.9534   1.0752   2.6918   3.5571   4.1474

          k =-0.0000 0.4374 0.0000 (  3924 PWs)   bands (ev):

   -20.2838 -15.6729 -10.4271  -7.7478  -0.7845   3.9243   4.3647   5.1855

          k =-0.0000 0.5103 0.0000 (  3942 PWs)   bands (ev):

   -19.0150 -17.2627 -10.6446  -6.7346  -2.1477   3.8607   6.2113   7.0926

          k = 0.0631 0.1094 0.0000 (  3893 PWs)   bands (ev):

   -23.7750 -11.7076  -8.2708  -7.8015  -0.5501   0.2399   1.0211   1.3770

          k = 0.0631 0.1823 0.0000 (  3903 PWs)   bands (ev):

   -23.3429 -11.1877  -9.5635  -8.5685   0.0422   0.8397   1.6259   1.9784

          k = 0.0631 0.2552 0.0000 (  3910 PWs)   bands (ev):

   -22.6985 -11.1988 -10.4210  -9.3673   0.9294   1.7342   2.5328   2.8736

          k = 0.0631 0.3281 0.0000 (  3908 PWs)   bands (ev):

   -21.8469 -12.9782 -10.0617  -9.4280   1.9677   2.1087   2.9656   3.7394

          k = 0.0631 0.4010 0.0000 (  3928 PWs)   bands (ev):

   -20.7980 -14.7576 -10.5895  -8.2637   0.0705   3.5685   4.4354   4.5507

          k = 0.0631 0.4739 0.0000 (  3939 PWs)   bands (ev):

   -19.5800 -16.4406 -10.9153  -7.0831  -1.5939   4.3737   5.3518   6.1987

          k = 0.0631 0.5468 0.0000 (  3930 PWs)   bands (ev):

   -18.5281 -17.6488 -11.0257  -6.4561  -2.3886   4.3314   7.2732   7.4269

          k = 0.1263 0.2187 0.0000 (  3903 PWs)   bands (ev):

   -22.8056 -10.6886 -10.5468  -9.5841   0.7825   1.5876   2.3821   2.7287

          k = 0.1263 0.2916 0.0000 (  3892 PWs)   bands (ev):

   -22.0592 -12.1277 -10.5336  -9.6685   1.8166   2.5335   2.6765   3.4403

          k = 0.1263 0.3645 0.0000 (  3908 PWs)   bands (ev):

   -21.1113 -13.7794 -11.2361  -8.5851   0.7939   3.1401   3.9679   4.7984

          k = 0.1263 0.4374 0.0000 (  3932 PWs)   bands (ev):

   -19.9799 -15.4547 -11.6975  -7.3785  -0.9390   4.7398   5.5694   5.7580

          k = 0.1263 0.5103 0.0000 (  3953 PWs)   bands (ev):

   -18.7289 -16.9973 -11.9290  -6.3412  -2.2582   5.6367   6.6307   7.3412

          k = 0.1894 0.3281 0.0000 (  3911 PWs)   bands (ev):

   -21.2163 -13.1568 -11.7769  -8.6949   1.0921   2.9948   3.8044   4.6494

          k = 0.1894 0.4010 0.0000 (  3938 PWs)   bands (ev):

   -20.1842 -14.4876 -12.6279  -7.5449  -0.4711   4.4555   5.2317   6.1573

          k = 0.1894 0.4739 0.0000 (  3963 PWs)   bands (ev):

   -18.9920 -15.9834 -13.0619  -6.3444  -1.9448   6.1782   6.7347   7.4641

          k = 0.1894 0.5468 0.0000 (  3983 PWs)   bands (ev):

   -17.9797 -17.1143 -13.1967  -5.6554  -2.7321   7.3896   7.4161   8.0203

          k = 0.2525 0.4374 0.0000 (  3951 PWs)   bands (ev):

   -19.0860 -15.2650 -13.8291  -6.3590  -1.7811   6.0361   6.4890   7.7746

          k = 0.2525 0.5103 0.0000 (  3974 PWs)   bands (ev):

   -17.8893 -16.3696 -14.3882  -5.2186  -2.9804   6.8480   7.8154   9.2706

          k = 0.3157 0.5468 0.0000 (  4005 PWs)   bands (ev):

   -16.8878 -16.8878 -15.0912  -4.0772  -4.0772   6.6311   9.1890   9.1892

     the Fermi energy is    -4.0772 ev

!    total energy              =     -22.77330976 Ry
     estimated scf accuracy    <          2.6E-11 Ry
     smearing contrib. (-TS)   =      -0.00005015 Ry
     internal energy E=F+TS    =     -22.77325961 Ry

     The total energy is F=E-TS. E is the sum of the following terms:
     one-electron contribution =    -401.88462956 Ry
     hartree contribution      =     201.60051345 Ry
     xc contribution           =      -7.09166765 Ry
     ewald contribution        =     184.60252415 Ry

     convergence has been achieved in  25 iterations

     Forces acting on atoms (cartesian axes, Ry/au):

     atom    1 type  1   force =    -0.00000000   -0.00000000    0.00000000
     atom    2 type  1   force =     0.00000000    0.00000000    0.00000000

     Total force =     0.000000     Total SCF correction =     0.000000


     Computing stress (Cartesian axis) and pressure

          total   stress  (Ry/bohr**3)                   (kbar)     P=        1.88
   0.00008589  -0.00000000   0.00000000           12.63       -0.00        0.00
   0.00000000   0.00008589  -0.00000000            0.00       12.63       -0.00
  -0.00000000   0.00000000  -0.00013352           -0.00        0.00      -19.64

     Energy error            =      1.1E-02
     Gradient error          =      1.6E-26
     Cell gradient error     =      8.6E-05


     number of scf cycles    =   3
     number of bfgs steps    =   2

     enthalpy old            =     -22.7619860886 Ry
     enthalpy new            =     -22.7733097624 Ry

     CASE: enthalpy_new < enthalpy_old

     new trust radius        =       0.0268982518 bohr
     new conv_thr            =            1.0E-10 Ry

     new unit-cell volume =    740.54866 a.u.^3 (   109.73799 Ang^3 )
     density =      0.36349 g/cm^3

CELL_PARAMETERS (alat=  4.33000000)
   1.061197151   0.000000000   0.000000000
  -0.530598575   0.919023691   0.000000000
   0.000000000   0.000000000   9.353348730

ATOMIC_POSITIONS (crystal)
C             0.3333333333        0.6666666667        0.5000000000
C             0.6666666667        0.3333333333        0.5000000000



     Writing output data file ./work/LiC433.save/
     NEW-OLD atomic charge density approx. for the potential

     negative rho (up, down):  3.805E-06 0.000E+00
     extrapolated charge    8.07874, renormalised to    8.00000

     total cpu time spent up to now is       13.3 secs

     Self-consistent Calculation

     iteration #  1     ecut=    50.00 Ry     beta= 0.70
     Davidson diagonalization with overlap
     c_bands:  1 eigenvalues not converged
     c_bands:  1 eigenvalues not converged
     c_bands:  1 eigenvalues not converged
     ethr =  1.00E-06,  avg # of iterations = 13.7

     total cpu time spent up to now is       13.7 secs

     total energy              =     -17.82504904 Ry
     estimated scf accuracy    <       2.79323178 Ry

     iteration #  2     ecut=    50.00 Ry     beta= 0.70
     Davidson diagonalization with overlap
     ethr =  1.00E-02,  avg # of iterations =  9.0

     total cpu time spent up to now is       13.9 secs

     total energy              =     -23.62269499 Ry
     estimated scf accuracy    <       1.54573387 Ry

     iteration #  3     ecut=    50.00 Ry     beta= 0.70
     Davidson diagonalization with overlap
     ethr =  1.00E-02,  avg # of iterations =  1.4

     total cpu time spent up to now is       14.0 secs

     total energy              =     -23.12771483 Ry
     estimated scf accuracy    <       0.50685915 Ry

     iteration #  4     ecut=    50.00 Ry     beta= 0.70
     Davidson diagonalization with overlap
     ethr =  6.34E-03,  avg # of iterations =  1.6

     total cpu time spent up to now is       14.2 secs

     total energy              =     -22.93411561 Ry
     estimated scf accuracy    <       0.20883028 Ry

     iteration #  5     ecut=    50.00 Ry     beta= 0.70
     Davidson diagonalization with overlap
     ethr =  2.61E-03,  avg # of iterations =  3.5

     total cpu time spent up to now is       14.3 secs

     total energy              =     -22.83640191 Ry
     estimated scf accuracy    <       0.09574854 Ry

     iteration #  6     ecut=    50.00 Ry     beta= 0.70
     Davidson diagonalization with overlap
     ethr =  1.20E-03,  avg # of iterations =  3.1

     total cpu time spent up to now is       14.4 secs

     total energy              =     -22.83810321 Ry
     estimated scf accuracy    <       0.03808821 Ry

     iteration #  7     ecut=    50.00 Ry     beta= 0.70
     Davidson diagonalization with overlap
     ethr =  4.76E-04,  avg # of iterations =  1.7

     total cpu time spent up to now is       14.5 secs

     total energy              =     -22.81129331 Ry
     estimated scf accuracy    <       0.03864945 Ry

     iteration #  8     ecut=    50.00 Ry     beta= 0.70
     Davidson diagonalization with overlap
     ethr =  4.76E-04,  avg # of iterations =  2.1

     total cpu time spent up to now is       14.7 secs

     total energy              =     -22.79266774 Ry
     estimated scf accuracy    <       0.02293317 Ry

     iteration #  9     ecut=    50.00 Ry     beta= 0.70
     Davidson diagonalization with overlap
     ethr =  2.87E-04,  avg # of iterations =  2.6

     total cpu time spent up to now is       14.8 secs

     total energy              =     -22.79132862 Ry
     estimated scf accuracy    <       0.01185279 Ry

     iteration # 10     ecut=    50.00 Ry     beta= 0.70
     Davidson diagonalization with overlap
     ethr =  1.48E-04,  avg # of iterations =  1.5

     negative rho (up, down):  8.897E-06 0.000E+00

     total cpu time spent up to now is       14.9 secs

     total energy              =     -22.77316223 Ry
     estimated scf accuracy    <       0.01099798 Ry

     iteration # 11     ecut=    50.00 Ry     beta= 0.70
     Davidson diagonalization with overlap
     c_bands:  1 eigenvalues not converged
     ethr =  1.37E-04,  avg # of iterations =  8.7

     negative rho (up, down):  1.228E-08 0.000E+00

     total cpu time spent up to now is       15.1 secs

     total energy              =     -22.77364809 Ry
     estimated scf accuracy    <       0.00000530 Ry

     iteration # 12     ecut=    50.00 Ry     beta= 0.70
     Davidson diagonalization with overlap
     ethr =  6.63E-08,  avg # of iterations =  8.3

     total cpu time spent up to now is       15.4 secs

     total energy              =     -22.77365242 Ry
     estimated scf accuracy    <       0.00000344 Ry

     iteration # 13     ecut=    50.00 Ry     beta= 0.70
     Davidson diagonalization with overlap
     ethr =  4.30E-08,  avg # of iterations =  1.4

     total cpu time spent up to now is       15.5 secs

     total energy              =     -22.77365280 Ry
     estimated scf accuracy    <       0.00000276 Ry

     iteration # 14     ecut=    50.00 Ry     beta= 0.70
     Davidson diagonalization with overlap
     ethr =  3.45E-08,  avg # of iterations =  1.0

     total cpu time spent up to now is       15.6 secs

     total energy              =     -22.77365278 Ry
     estimated scf accuracy    <       0.00000332 Ry

     iteration # 15     ecut=    50.00 Ry     beta= 0.70
     Davidson diagonalization with overlap
     ethr =  3.45E-08,  avg # of iterations =  1.0

     total cpu time spent up to now is       15.7 secs

     total energy              =     -22.77365276 Ry
     estimated scf accuracy    <       0.00000323 Ry

     iteration # 16     ecut=    50.00 Ry     beta= 0.70
     Davidson diagonalization with overlap
     ethr =  3.45E-08,  avg # of iterations =  1.0

     negative rho (up, down):  1.420E-08 0.000E+00

     total cpu time spent up to now is       15.8 secs

     total energy              =     -22.77365281 Ry
     estimated scf accuracy    <       0.00000233 Ry

     iteration # 17     ecut=    50.00 Ry     beta= 0.70
     Davidson diagonalization with overlap
     ethr =  2.92E-08,  avg # of iterations =  1.0

     total cpu time spent up to now is       15.9 secs

     total energy              =     -22.77365280 Ry
     estimated scf accuracy    <       0.00000232 Ry

     iteration # 18     ecut=    50.00 Ry     beta= 0.70
     Davidson diagonalization with overlap
     ethr =  2.90E-08,  avg # of iterations =  1.0

     total cpu time spent up to now is       16.0 secs

     total energy              =     -22.77365258 Ry
     estimated scf accuracy    <       0.00000208 Ry

     iteration # 19     ecut=    50.00 Ry     beta= 0.70
     Davidson diagonalization with overlap
     ethr =  2.59E-08,  avg # of iterations =  1.0

     total cpu time spent up to now is       16.1 secs

     total energy              =     -22.77365254 Ry
     estimated scf accuracy    <       0.00000020 Ry

     iteration # 20     ecut=    50.00 Ry     beta= 0.70
     Davidson diagonalization with overlap
     ethr =  2.50E-09,  avg # of iterations =  1.7

     total cpu time spent up to now is       16.2 secs

     total energy              =     -22.77365256 Ry
     estimated scf accuracy    <       0.00000002 Ry

     iteration # 21     ecut=    50.00 Ry     beta= 0.70
     Davidson diagonalization with overlap
     ethr =  2.77E-10,  avg # of iterations =  2.0

     total cpu time spent up to now is       16.3 secs

     total energy              =     -22.77365256 Ry
     estimated scf accuracy    <          3.8E-10 Ry

     iteration # 22     ecut=    50.00 Ry     beta= 0.70
     Davidson diagonalization with overlap
     ethr =  4.69E-12,  avg # of iterations =  3.2

     total cpu time spent up to now is       16.5 secs

     total energy              =     -22.77365256 Ry
     estimated scf accuracy    <          1.6E-10 Ry

     iteration # 23     ecut=    50.00 Ry     beta= 0.70
     Davidson diagonalization with overlap
     ethr =  1.94E-12,  avg # of iterations =  2.0

     total cpu time spent up to now is       16.6 secs

     End of self-consistent calculation

          k = 0.0000 0.0000 0.0000 (  3907 PWs)   bands (ev):

   -24.0261 -12.0440  -7.1385  -7.1385  -0.9917  -0.2111   0.5678   0.9256

          k =-0.0000 0.0725 0.0000 (  3895 PWs)   bands (ev):

   -23.9182 -11.9128  -7.5732  -7.3723  -0.8451  -0.0622   0.7175   1.0747

          k =-0.0000 0.1451 0.0000 (  3883 PWs)   bands (ev):

   -23.5957 -11.5246  -8.7285  -7.9599  -0.4053   0.3837   1.1665   1.5217

          k =-0.0000 0.2176 0.0000 (  3903 PWs)   bands (ev):

   -23.0611 -10.8859 -10.3230  -8.6997   0.3272   1.1246   1.9148   2.2644

          k =-0.0000 0.2902 0.0000 (  3916 PWs)   bands (ev):

   -22.3180 -12.1034 -10.0115  -9.4184   1.3504   2.1342   2.9382   2.9609

          k =-0.0000 0.3627 0.0000 (  3902 PWs)   bands (ev):

   -21.3725 -13.9134 -10.0104  -8.9337   0.9707   2.6577   3.5175   3.9721

          k =-0.0000 0.4352 0.0000 (  3924 PWs)   bands (ev):

   -20.2433 -15.6579 -10.4304  -7.7443  -0.8608   3.7442   4.3004   5.1295

          k =-0.0000 0.5078 0.0000 (  3942 PWs)   bands (ev):

   -18.9933 -17.2265 -10.6452  -6.7465  -2.2024   3.6642   6.1416   7.0158

          k = 0.0628 0.1088 0.0000 (  3893 PWs)   bands (ev):

   -23.7031 -11.6540  -8.3131  -7.8390  -0.5519   0.2352   1.0169   1.3728

          k = 0.0628 0.1814 0.0000 (  3903 PWs)   bands (ev):

   -23.2746 -11.1403  -9.5985  -8.5954   0.0346   0.8289   1.6157   1.9681

          k = 0.0628 0.2539 0.0000 (  3910 PWs)   bands (ev):

   -22.6356 -11.2220 -10.3829  -9.3846   0.9132   1.7140   2.5136   2.8533

          k = 0.0628 0.3264 0.0000 (  3908 PWs)   bands (ev):

   -21.7915 -12.9874 -10.0710  -9.4022   1.8501   2.0808   2.9300   3.7077

          k = 0.0628 0.3990 0.0000 (  3928 PWs)   bands (ev):

   -20.7521 -14.7516 -10.5928  -8.2531  -0.0203   3.5245   4.3594   4.3871

          k = 0.0628 0.4715 0.0000 (  3939 PWs)   bands (ev):

   -19.5477 -16.4176 -10.9148  -7.0891  -1.6589   4.1779   5.2887   6.1315

          k = 0.0628 0.5441 0.0000 (  3930 PWs)   bands (ev):

   -18.5235 -17.5968 -11.0240  -6.4721  -2.4404   4.1319   7.1914   7.3463

          k = 0.1256 0.2176 0.0000 (  3903 PWs)   bands (ev):

   -22.7418 -10.7190 -10.5071  -9.5972   0.7677   1.5691   2.3644   2.7108

          k = 0.1256 0.2902 0.0000 (  3892 PWs)   bands (ev):

   -22.0019 -12.1479 -10.5365  -9.6396   1.7916   2.4223   2.6251   3.4122

          k = 0.1256 0.3627 0.0000 (  3908 PWs)   bands (ev):

   -21.0623 -13.7848 -11.2336  -8.5700   0.6884   3.1020   3.9245   4.7563

          k = 0.1256 0.4352 0.0000 (  3932 PWs)   bands (ev):

   -19.9420 -15.4440 -11.6914  -7.3795  -1.0180   4.6844   5.5086   5.5568

          k = 0.1256 0.5078 0.0000 (  3953 PWs)   bands (ev):

   -18.7096 -16.9656 -11.9211  -6.3578  -2.3162   5.4315   6.5556   7.2578

          k = 0.1885 0.3264 0.0000 (  3911 PWs)   bands (ev):

   -21.1663 -13.1753 -11.7631  -8.6783   0.9795   2.9581   3.7629   4.6092

          k = 0.1885 0.3990 0.0000 (  3938 PWs)   bands (ev):

   -20.1439 -14.4936 -12.6080  -7.5433  -0.5613   4.4042   5.1745   6.1019

          k = 0.1885 0.4715 0.0000 (  3963 PWs)   bands (ev):

   -18.9650 -15.9709 -13.0416  -6.3594  -2.0133   6.1084   6.6580   7.2525

          k = 0.1885 0.5441 0.0000 (  3983 PWs)   bands (ev):

   -17.9772 -17.0754 -13.1764  -5.6810  -2.7881   7.1754   7.9273   8.1430

          k = 0.2513 0.4352 0.0000 (  3951 PWs)   bands (ev):

   -19.0570 -15.2738 -13.7890  -6.3732  -1.8549   5.9683   6.4160   7.6969

          k = 0.2513 0.5078 0.0000 (  3974 PWs)   bands (ev):

   -17.8770 -16.3621 -14.3445  -5.2487  -3.0380   6.7739   7.7252   8.9219

          k = 0.3141 0.5441 0.0000 (  4005 PWs)   bands (ev):

   -16.8898 -16.8898 -15.0227  -4.1220  -4.1220   9.0519   9.0519   9.5635

     the Fermi energy is    -4.1220 ev

!    total energy              =     -22.77365256 Ry
     estimated scf accuracy    <          8.8E-12 Ry
     smearing contrib. (-TS)   =      -0.00005015 Ry
     internal energy E=F+TS    =     -22.77360241 Ry

     The total energy is F=E-TS. E is the sum of the following terms:
     one-electron contribution =    -397.87139866 Ry
     hartree contribution      =     199.58333150 Ry
     xc contribution           =      -7.06979931 Ry
     ewald contribution        =     182.58426406 Ry

     convergence has been achieved in  23 iterations

     Forces acting on atoms (cartesian axes, Ry/au):

     atom    1 type  1   force =     0.00000000    0.00000000    0.00000000
     atom    2 type  1   force =    -0.00000000   -0.00000000    0.00000000

     Total force =     0.000000     Total SCF correction =     0.000000


     Computing stress (Cartesian axis) and pressure

          total   stress  (Ry/bohr**3)                   (kbar)     P=       -5.71
   0.00000864  -0.00000000   0.00000000            1.27       -0.00        0.00
   0.00000000   0.00000864   0.00000000            0.00        1.27        0.00
  -0.00000000   0.00000000  -0.00013376           -0.00        0.00      -19.68

     Energy error            =      3.4E-04
     Gradient error          =      1.6E-26
     Cell gradient error     =      8.6E-06


     number of scf cycles    =   4
     number of bfgs steps    =   3

     enthalpy old            =     -22.7733097624 Ry
     enthalpy new            =     -22.7736525610 Ry

     CASE: enthalpy_new < enthalpy_old

     new trust radius        =       0.0030241975 bohr
     new conv_thr            =            1.0E-10 Ry

     new unit-cell volume =    741.37186 a.u.^3 (   109.85998 Ang^3 )
     density =      0.36308 g/cm^3

CELL_PARAMETERS (alat=  4.33000000)
   1.061786808   0.000000000   0.000000000
  -0.530893404   0.919534349   0.000000000
   0.000000000   0.000000000   9.353348730

ATOMIC_POSITIONS (crystal)
C             0.3333333333        0.6666666667        0.5000000000
C             0.6666666667        0.3333333333        0.5000000000



     Writing output data file ./work/LiC433.save/
     NEW-OLD atomic charge density approx. for the potential
     extrapolated charge    8.00887, renormalised to    8.00000

     total cpu time spent up to now is       16.7 secs

     Self-consistent Calculation

     iteration #  1     ecut=    50.00 Ry     beta= 0.70
     Davidson diagonalization with overlap
     c_bands:  1 eigenvalues not converged
     c_bands:  1 eigenvalues not converged
     c_bands:  1 eigenvalues not converged
     c_bands:  1 eigenvalues not converged
     c_bands:  1 eigenvalues not converged
     ethr =  1.00E-06,  avg # of iterations = 10.4

     total cpu time spent up to now is       16.9 secs

     total energy              =     -22.77360839 Ry
     estimated scf accuracy    <       0.00002458 Ry

     iteration #  2     ecut=    50.00 Ry     beta= 0.70
     Davidson diagonalization with overlap
     c_bands:  1 eigenvalues not converged
     c_bands:  1 eigenvalues not converged
     ethr =  3.07E-07,  avg # of iterations =  8.9

     total cpu time spent up to now is       17.2 secs

     total energy              =     -22.77365764 Ry
     estimated scf accuracy    <       0.00002299 Ry

     iteration #  3     ecut=    50.00 Ry     beta= 0.70
     Davidson diagonalization with overlap
     c_bands:  1 eigenvalues not converged
     ethr =  2.87E-07,  avg # of iterations =  2.1

     total cpu time spent up to now is       17.3 secs

     total energy              =     -22.77365623 Ry
     estimated scf accuracy    <       0.00000527 Ry

     iteration #  4     ecut=    50.00 Ry     beta= 0.70
     Davidson diagonalization with overlap
     ethr =  6.59E-08,  avg # of iterations =  2.3

     total cpu time spent up to now is       17.4 secs

     total energy              =     -22.77365659 Ry
     estimated scf accuracy    <       0.00000088 Ry

     iteration #  5     ecut=    50.00 Ry     beta= 0.70
     Davidson diagonalization with overlap
     ethr =  1.10E-08,  avg # of iterations =  1.0

     total cpu time spent up to now is       17.5 secs

     total energy              =     -22.77365661 Ry
     estimated scf accuracy    <       0.00000089 Ry

     iteration #  6     ecut=    50.00 Ry     beta= 0.70
     Davidson diagonalization with overlap
     ethr =  1.10E-08,  avg # of iterations =  1.0

     total cpu time spent up to now is       17.6 secs

     total energy              =     -22.77365605 Ry
     estimated scf accuracy    <       0.00000090 Ry

     iteration #  7     ecut=    50.00 Ry     beta= 0.70
     Davidson diagonalization with overlap
     ethr =  1.10E-08,  avg # of iterations =  2.0

     total cpu time spent up to now is       17.7 secs

     total energy              =     -22.77365618 Ry
     estimated scf accuracy    <       0.00000007 Ry

     iteration #  8     ecut=    50.00 Ry     beta= 0.70
     Davidson diagonalization with overlap
     ethr =  8.52E-10,  avg # of iterations =  1.4

     total cpu time spent up to now is       17.8 secs

     total energy              =     -22.77365618 Ry
     estimated scf accuracy    <          5.1E-10 Ry

     iteration #  9     ecut=    50.00 Ry     beta= 0.70
     Davidson diagonalization with overlap
     ethr =  6.34E-12,  avg # of iterations =  3.6

     total cpu time spent up to now is       18.0 secs

     End of self-consistent calculation

          k = 0.0000 0.0000 0.0000 (  3907 PWs)   bands (ev):

   -24.0177 -12.0375  -7.1438  -7.1438  -0.9914  -0.2112   0.5675   0.9253

          k =-0.0000 0.0725 0.0000 (  3895 PWs)   bands (ev):

   -23.9100 -11.9065  -7.5783  -7.3772  -0.8450  -0.0624   0.7170   1.0743

          k =-0.0000 0.1450 0.0000 (  3883 PWs)   bands (ev):

   -23.5877 -11.5188  -8.7328  -7.9638  -0.4057   0.3830   1.1656   1.5207

          k =-0.0000 0.2175 0.0000 (  3903 PWs)   bands (ev):

   -23.0537 -10.8810 -10.3261  -8.7026   0.3260   1.1230   1.9130   2.2626

          k =-0.0000 0.2900 0.0000 (  3916 PWs)   bands (ev):

   -22.3112 -12.1051 -10.0078  -9.4201   1.3481   2.1310   2.9246   2.9579

          k =-0.0000 0.3625 0.0000 (  3902 PWs)   bands (ev):

   -21.3667 -13.9135 -10.0113  -8.9315   0.9591   2.6539   3.5130   3.9521

          k =-0.0000 0.4350 0.0000 (  3924 PWs)   bands (ev):

   -20.2388 -15.6562 -10.4308  -7.7439  -0.8694   3.7237   4.2937   5.1232

          k =-0.0000 0.5075 0.0000 (  3942 PWs)   bands (ev):

   -18.9909 -17.2224 -10.6453  -6.7478  -2.2085   3.6423   6.1338   7.0072

          k = 0.0628 0.1088 0.0000 (  3893 PWs)   bands (ev):

   -23.6951 -11.6480  -8.3178  -7.8431  -0.5521   0.2346   1.0161   1.3720

          k = 0.0628 0.1813 0.0000 (  3903 PWs)   bands (ev):

   -23.2670 -11.1350  -9.6024  -8.5984   0.0338   0.8276   1.6142   1.9666

          k = 0.0628 0.2538 0.0000 (  3910 PWs)   bands (ev):

   -22.6286 -11.2245 -10.3787  -9.3865   0.9114   1.7117   2.5111   2.8510

          k = 0.0628 0.3263 0.0000 (  3908 PWs)   bands (ev):

   -21.7853 -12.9884 -10.0720  -9.3994   1.8369   2.0777   2.9259   3.7040

          k = 0.0628 0.3988 0.0000 (  3928 PWs)   bands (ev):

   -20.7470 -14.7509 -10.5931  -8.2519  -0.0305   3.5195   4.3381   4.3816

          k = 0.0628 0.4713 0.0000 (  3939 PWs)   bands (ev):

   -19.5441 -16.4150 -10.9147  -7.0898  -1.6661   4.1560   5.2817   6.1239

          k = 0.0628 0.5438 0.0000 (  3930 PWs)   bands (ev):

   -18.5229 -17.5910 -11.0238  -6.4739  -2.4462   4.1097   7.1822   7.3372

          k = 0.1256 0.2175 0.0000 (  3903 PWs)   bands (ev):

   -22.7347 -10.7224 -10.5027  -9.5986   0.7660   1.5670   2.3622   2.7084

          k = 0.1256 0.2900 0.0000 (  3892 PWs)   bands (ev):

   -21.9954 -12.1502 -10.5368  -9.6364   1.7888   2.4088   2.6204   3.4087

          k = 0.1256 0.3625 0.0000 (  3908 PWs)   bands (ev):

   -21.0568 -13.7854 -11.2333  -8.5683   0.6766   3.0977   3.9196   4.7514

          k = 0.1256 0.4350 0.0000 (  3932 PWs)   bands (ev):

   -19.9378 -15.4427 -11.6907  -7.3797  -1.0268   4.6782   5.5017   5.5343

          k = 0.1256 0.5075 0.0000 (  3953 PWs)   bands (ev):

   -18.7074 -16.9620 -11.9202  -6.3596  -2.3227   5.4086   6.5472   7.2485

          k = 0.1884 0.3263 0.0000 (  3911 PWs)   bands (ev):

   -21.1607 -13.1773 -11.7615  -8.6765   0.9670   2.9540   3.7582   4.6044

          k = 0.1884 0.3988 0.0000 (  3938 PWs)   bands (ev):

   -20.1394 -14.4943 -12.6057  -7.5432  -0.5714   4.3984   5.1680   6.0955

          k = 0.1884 0.4713 0.0000 (  3963 PWs)   bands (ev):

   -18.9620 -15.9695 -13.0393  -6.3610  -2.0209   6.1006   6.6495   7.2289

          k = 0.1884 0.5438 0.0000 (  3983 PWs)   bands (ev):

   -17.9769 -17.0711 -13.1741  -5.6838  -2.7943   7.1514   7.9169   8.1328

          k = 0.2511 0.4350 0.0000 (  3951 PWs)   bands (ev):

   -19.0537 -15.2748 -13.7845  -6.3748  -1.8631   5.9607   6.4079   7.6897

          k = 0.2511 0.5075 0.0000 (  3974 PWs)   bands (ev):

   -17.8756 -16.3613 -14.3396  -5.2521  -3.0444   6.7657   7.7151   8.8989

          k = 0.3139 0.5438 0.0000 (  4005 PWs)   bands (ev):

   -16.8899 -16.8899 -15.0151  -4.1270  -4.1270   6.5554   9.0364   9.0364

     the Fermi energy is    -4.1270 ev

!    total energy              =     -22.77365618 Ry
     estimated scf accuracy    <          7.8E-11 Ry
     smearing contrib. (-TS)   =      -0.00005015 Ry
     internal energy E=F+TS    =     -22.77360603 Ry

     The total energy is F=E-TS. E is the sum of the following terms:
     one-electron contribution =    -397.42396024 Ry
     hartree contribution      =     199.35842935 Ry
     xc contribution           =      -7.06735387 Ry
     ewald contribution        =     182.35927873 Ry

     convergence has been achieved in   9 iterations

     Forces acting on atoms (cartesian axes, Ry/au):

     atom    1 type  1   force =     0.00000000    0.00000000    0.00000000
     atom    2 type  1   force =     0.00000000    0.00000000    0.00000000

     Total force =     0.000000     Total SCF correction =     0.000000


     Computing stress (Cartesian axis) and pressure

          total   stress  (Ry/bohr**3)                   (kbar)     P=       -6.55
   0.00000017  -0.00000000   0.00000000            0.02       -0.00        0.00
  -0.00000000   0.00000017   0.00000000           -0.00        0.02        0.00
   0.00000000   0.00000000  -0.00013381            0.00        0.00      -19.68

     Energy error            =      3.6E-06
     Gradient error          =      0.0E+00
     Cell gradient error     =      1.7E-07


     number of scf cycles    =   5
     number of bfgs steps    =   4

     enthalpy old            =     -22.7736525610 Ry
     enthalpy new            =     -22.7736561820 Ry

     CASE: enthalpy_new < enthalpy_old

     small trust_radius: resetting bfgs history

     new trust radius        =       0.0000224958 bohr
     new conv_thr            =            1.0E-10 Ry

     new unit-cell volume =    741.37799 a.u.^3 (   109.86088 Ang^3 )
     density =      0.36308 g/cm^3

CELL_PARAMETERS (alat=  4.33000000)
   1.061791194   0.000000000   0.000000000
  -0.530895597   0.919538148   0.000000000
   0.000000000   0.000000000   9.353348730

ATOMIC_POSITIONS (crystal)
C             0.3333333333        0.6666666667        0.5000000000
C             0.6666666667        0.3333333333        0.5000000000



     Writing output data file ./work/LiC433.save/
     NEW-OLD atomic charge density approx. for the potential
     extrapolated charge    8.00007, renormalised to    8.00000

     total cpu time spent up to now is       18.1 secs

     Self-consistent Calculation

     iteration #  1     ecut=    50.00 Ry     beta= 0.70
     Davidson diagonalization with overlap
     ethr =  1.00E-06,  avg # of iterations =  1.0

     Threshold (ethr) on eigenvalues was too large:
     Diagonalizing with lowered threshold

     Davidson diagonalization with overlap
     ethr =  1.37E-11,  avg # of iterations =  1.8

     total cpu time spent up to now is       18.3 secs

     total energy              =     -22.77365618 Ry
     estimated scf accuracy    <          1.2E-09 Ry

     iteration #  2     ecut=    50.00 Ry     beta= 0.70
     Davidson diagonalization with overlap
     ethr =  1.56E-11,  avg # of iterations =  3.0

     total cpu time spent up to now is       18.4 secs

     total energy              =     -22.77365618 Ry
     estimated scf accuracy    <          1.2E-09 Ry

     iteration #  3     ecut=    50.00 Ry     beta= 0.70
     Davidson diagonalization with overlap
     ethr =  1.55E-11,  avg # of iterations =  1.0

     total cpu time spent up to now is       18.5 secs

     total energy              =     -22.77365618 Ry
     estimated scf accuracy    <          3.0E-10 Ry

     iteration #  4     ecut=    50.00 Ry     beta= 0.70
     Davidson diagonalization with overlap
     ethr =  3.72E-12,  avg # of iterations =  2.0

     total cpu time spent up to now is       18.6 secs

     End of self-consistent calculation

          k = 0.0000 0.0000 0.0000 (  3907 PWs)   bands (ev):

   -24.0177 -12.0375  -7.1439  -7.1439  -0.9914  -0.2111   0.5675   0.9253

          k =-0.0000 0.0725 0.0000 (  3895 PWs)   bands (ev):

   -23.9100 -11.9065  -7.5784  -7.3773  -0.8450  -0.0624   0.7170   1.0743

          k =-0.0000 0.1450 0.0000 (  3883 PWs)   bands (ev):

   -23.5877 -11.5188  -8.7329  -7.9639  -0.4057   0.3830   1.1656   1.5207

          k =-0.0000 0.2175 0.0000 (  3903 PWs)   bands (ev):

   -23.0537 -10.8810 -10.3262  -8.7026   0.3260   1.1230   1.9130   2.2626

          k =-0.0000 0.2900 0.0000 (  3916 PWs)   bands (ev):

   -22.3112 -12.1052 -10.0078  -9.4202   1.3481   2.1310   2.9244   2.9578

          k =-0.0000 0.3625 0.0000 (  3902 PWs)   bands (ev):

   -21.3667 -13.9136 -10.0114  -8.9315   0.9589   2.6539   3.5130   3.9518

          k =-0.0000 0.4350 0.0000 (  3924 PWs)   bands (ev):

   -20.2388 -15.6563 -10.4308  -7.7440  -0.8695   3.7235   4.2936   5.1232

          k =-0.0000 0.5075 0.0000 (  3942 PWs)   bands (ev):

   -18.9909 -17.2225 -10.6453  -6.7478  -2.2086   3.6421   6.1337   7.0072

          k = 0.0628 0.1088 0.0000 (  3893 PWs)   bands (ev):

   -23.6951 -11.6480  -8.3179  -7.8432  -0.5521   0.2346   1.0161   1.3720

          k = 0.0628 0.1813 0.0000 (  3903 PWs)   bands (ev):

   -23.2670 -11.1350  -9.6024  -8.5985   0.0338   0.8276   1.6142   1.9666

          k = 0.0628 0.2538 0.0000 (  3910 PWs)   bands (ev):

   -22.6286 -11.2246 -10.3787  -9.3866   0.9114   1.7117   2.5111   2.8509

          k = 0.0628 0.3263 0.0000 (  3908 PWs)   bands (ev):

   -21.7853 -12.9885 -10.0720  -9.3994   1.8368   2.0777   2.9259   3.7039

          k = 0.0628 0.3988 0.0000 (  3928 PWs)   bands (ev):

   -20.7470 -14.7510 -10.5931  -8.2520  -0.0306   3.5195   4.3379   4.3816

          k = 0.0628 0.4713 0.0000 (  3939 PWs)   bands (ev):

   -19.5441 -16.4151 -10.9148  -7.0898  -1.6662   4.1558   5.2817   6.1239

          k = 0.0628 0.5438 0.0000 (  3930 PWs)   bands (ev):

   -18.5230 -17.5910 -11.0238  -6.4739  -2.4463   4.1094   7.1822   7.3372

          k = 0.1256 0.2175 0.0000 (  3903 PWs)   bands (ev):

   -22.7347 -10.7225 -10.5027  -9.5987   0.7660   1.5670   2.3622   2.7084

          k = 0.1256 0.2900 0.0000 (  3892 PWs)   bands (ev):

   -21.9954 -12.1502 -10.5369  -9.6365   1.7888   2.4087   2.6204   3.4087

          k = 0.1256 0.3625 0.0000 (  3908 PWs)   bands (ev):

   -21.0568 -13.7854 -11.2334  -8.5684   0.6765   3.0977   3.9196   4.7513

          k = 0.1256 0.4350 0.0000 (  3932 PWs)   bands (ev):

   -19.9378 -15.4428 -11.6908  -7.3797  -1.0269   4.6781   5.5017   5.5341

          k = 0.1256 0.5075 0.0000 (  3953 PWs)   bands (ev):

   -18.7074 -16.9620 -11.9203  -6.3597  -2.3228   5.4084   6.5472   7.2484

          k = 0.1884 0.3263 0.0000 (  3911 PWs)   bands (ev):

   -21.1607 -13.1774 -11.7616  -8.6765   0.9668   2.9540   3.7582   4.6044

          k = 0.1884 0.3988 0.0000 (  3938 PWs)   bands (ev):

   -20.1394 -14.4944 -12.6057  -7.5432  -0.5715   4.3984   5.1680   6.0954

          k = 0.1884 0.4713 0.0000 (  3963 PWs)   bands (ev):

   -18.9620 -15.9696 -13.0393  -6.3611  -2.0210   6.1005   6.6494   7.2286

          k = 0.1884 0.5438 0.0000 (  3983 PWs)   bands (ev):

   -17.9770 -17.0711 -13.1741  -5.6839  -2.7944   7.1512   7.9168   8.1326

          k = 0.2511 0.4350 0.0000 (  3951 PWs)   bands (ev):

   -19.0538 -15.2749 -13.7845  -6.3748  -1.8632   5.9607   6.4078   7.6895

          k = 0.2511 0.5075 0.0000 (  3974 PWs)   bands (ev):

   -17.8757 -16.3613 -14.3396  -5.2522  -3.0445   6.7656   7.7150   8.8987

          k = 0.3139 0.5438 0.0000 (  4005 PWs)   bands (ev):

   -16.8900 -16.8900 -15.0150  -4.1271  -4.1271   6.5554   9.0363   9.0363

     the Fermi energy is    -4.1271 ev

!    total energy              =     -22.77365618 Ry
     estimated scf accuracy    <          2.7E-11 Ry
     smearing contrib. (-TS)   =      -0.00005015 Ry
     internal energy E=F+TS    =     -22.77360603 Ry

     The total energy is F=E-TS. E is the sum of the following terms:
     one-electron contribution =    -397.42066056 Ry
     hartree contribution      =     199.35678691 Ry
     xc contribution           =      -7.06733899 Ry
     ewald contribution        =     182.35760660 Ry

     convergence has been achieved in   4 iterations

     Forces acting on atoms (cartesian axes, Ry/au):

     atom    1 type  1   force =     0.00000000    0.00000000    0.00000000
     atom    2 type  1   force =    -0.00000000   -0.00000000    0.00000000

     Total force =     0.000000     Total SCF correction =     0.000000


     Computing stress (Cartesian axis) and pressure

          total   stress  (Ry/bohr**3)                   (kbar)     P=       -6.55
   0.00000010  -0.00000000   0.00000000            0.01       -0.00        0.00
   0.00000000   0.00000010   0.00000000            0.00        0.01        0.00
  -0.00000000  -0.00000000  -0.00013378           -0.00       -0.00      -19.68

     Energy error            =      8.7E-10
     Gradient error          =      1.6E-26
     Cell gradient error     =      1.0E-07


     number of scf cycles    =   6
     number of bfgs steps    =   5

     enthalpy old            =     -22.7736561820 Ry
     enthalpy new            =     -22.7736561828 Ry

     CASE: enthalpy_new < enthalpy_old

     Message from routine bfgs:
     history already reset at previous step: stopping
     small trust_radius: resetting bfgs history

     new trust radius        =       0.0000137485 bohr
     new conv_thr            =            1.0E-10 Ry

     new unit-cell volume =    741.38173 a.u.^3 (   109.86144 Ang^3 )
     density =      0.36308 g/cm^3

CELL_PARAMETERS (alat=  4.33000000)
   1.061793875   0.000000000   0.000000000
  -0.530896937   0.919540469   0.000000000
   0.000000000   0.000000000   9.353348730

ATOMIC_POSITIONS (crystal)
C             0.3333333333        0.6666666667        0.5000000000
C             0.6666666667        0.3333333333        0.5000000000



     Writing output data file ./work/LiC433.save/
     NEW-OLD atomic charge density approx. for the potential
     extrapolated charge    8.00004, renormalised to    8.00000

     total cpu time spent up to now is       18.7 secs

     Self-consistent Calculation

     iteration #  1     ecut=    50.00 Ry     beta= 0.70
     Davidson diagonalization with overlap
     ethr =  1.00E-06,  avg # of iterations =  1.0

     Threshold (ethr) on eigenvalues was too large:
     Diagonalizing with lowered threshold

     Davidson diagonalization with overlap
     ethr =  7.06E-12,  avg # of iterations =  1.8

     total cpu time spent up to now is       18.9 secs

     total energy              =     -22.77365618 Ry
     estimated scf accuracy    <          6.3E-10 Ry

     iteration #  2     ecut=    50.00 Ry     beta= 0.70
     Davidson diagonalization with overlap
     ethr =  7.92E-12,  avg # of iterations =  2.7

     total cpu time spent up to now is       19.0 secs

     total energy              =     -22.77365618 Ry
     estimated scf accuracy    <          4.7E-10 Ry

     iteration #  3     ecut=    50.00 Ry     beta= 0.70
     Davidson diagonalization with overlap
     ethr =  5.82E-12,  avg # of iterations =  1.0

     total cpu time spent up to now is       19.2 secs

     End of self-consistent calculation

[...]

          k = 0.1256 0.5075 0.0000 (  3953 PWs)   bands (ev):

   -18.7075 -16.9621 -11.9203  -6.3597  -2.3229   5.4082   6.5471   7.2483

          k = 0.1884 0.3262 0.0000 (  3911 PWs)   bands (ev):

   -21.1608 -13.1775 -11.7616  -8.6765   0.9667   2.9539   3.7582   4.6044

          k = 0.1884 0.3987 0.0000 (  3938 PWs)   bands (ev):

   -20.1394 -14.4944 -12.6058  -7.5433  -0.5716   4.3984   5.1680   6.0954

          k = 0.1884 0.4712 0.0000 (  3963 PWs)   bands (ev):

   -18.9621 -15.9696 -13.0394  -6.3612  -2.0211   6.1005   6.6494   7.2285

          k = 0.1884 0.5437 0.0000 (  3983 PWs)   bands (ev):

   -17.9770 -17.0711 -13.1742  -5.6840  -2.7945   7.1510   7.9167   8.1323

          k = 0.2511 0.4350 0.0000 (  3951 PWs)   bands (ev):

   -19.0538 -15.2749 -13.7845  -6.3749  -1.8633   5.9606   6.4077   7.6892

          k = 0.2511 0.5075 0.0000 (  3974 PWs)   bands (ev):

   -17.8757 -16.3614 -14.3396  -5.2522  -3.0446   6.7655   7.7150   8.8985

          k = 0.3139 0.5437 0.0000 (  4005 PWs)   bands (ev):

   -16.8901 -16.8901 -15.0151  -4.1272  -4.1272   6.5553   9.0362   9.0362

     the Fermi energy is    -4.1272 ev

!    total energy              =     -22.77365618 Ry
     estimated scf accuracy    <          9.8E-11 Ry
     smearing contrib. (-TS)   =      -0.00005015 Ry
     internal energy E=F+TS    =     -22.77360603 Ry

     The total energy is F=E-TS. E is the sum of the following terms:
     one-electron contribution =    -397.41864547 Ry
     hartree contribution      =     199.35578456 Ry
     xc contribution           =      -7.06732981 Ry
     ewald contribution        =     182.35658468 Ry

     convergence has been achieved in   3 iterations

     Forces acting on atoms (cartesian axes, Ry/au):

     atom    1 type  1   force =    -0.00000000   -0.00000000    0.00000000
     atom    2 type  1   force =     0.00000000    0.00000000    0.00000000

     Total force =     0.000000     Total SCF correction =     0.000000


     Computing stress (Cartesian axis) and pressure

          total   stress  (Ry/bohr**3)                   (kbar)     P=       -6.55
   0.00000006  -0.00000000  -0.00000000            0.01       -0.00       -0.00
   0.00000000   0.00000006  -0.00000000            0.00        0.01       -0.00
  -0.00000000  -0.00000000  -0.00013375           -0.00       -0.00      -19.68

     Message from routine bfgs:
     history already reset at previous step: stopping
     Energy error            =      2.8E-10
     Gradient error          =      1.6E-26
     Cell gradient error     =      6.1E-08


     bfgs converged in   7 scf cycles and   6 bfgs steps
     (criteria: energy <  1.0E-04 Ry, force <  1.0E-08Ry/Bohr, cell <  1.0E-03kbar)

     End of BFGS Geometry Optimization

     Final enthalpy =     -22.7736561831 Ry

     File ./work/LiC433.bfgs deleted, as requested
Begin final coordinates
     new unit-cell volume =    741.38173 a.u.^3 (   109.86144 Ang^3 )
     density =      0.36308 g/cm^3

CELL_PARAMETERS (alat=  4.33000000)
   1.061793875   0.000000000   0.000000000
  -0.530896937   0.919540469   0.000000000
   0.000000000   0.000000000   9.353348730

ATOMIC_POSITIONS (crystal)
C             0.3333333333        0.6666666667        0.5000000000
C             0.6666666667        0.3333333333        0.5000000000
End final coordinates



     Writing output data file ./work/LiC433.save/

     Final scf calculation at the relaxed structure.
     The G-vectors are recalculated for the final unit cell
     Results may differ from those at the preceding step.
 
     Parallelization info
     --------------------
     sticks:   dense  smooth     PW     G-vecs:    dense   smooth      PW
     Min           9       9      2                 1103     1103     170
     Max          10      10      3                 1126     1126     215
     Sum         295     295     91                35517    35517    6349
 


     bravais-lattice index     =            4
     lattice parameter (alat)  =       4.3300  a.u.
     unit-cell volume          =     741.3817 (a.u.)^3
     number of atoms/cell      =            2
     number of atomic types    =            1
     number of electrons       =         8.00
     number of Kohn-Sham states=            8
     kinetic-energy cutoff     =      50.0000  Ry
     charge density cutoff     =     200.0000  Ry
     scf convergence threshold =      1.0E-10
     mixing beta               =       0.7000
     number of iterations used =            8  plain     mixing
     press convergence thresh. =      1.0E-03
     Exchange-correlation= PBE
                           (   1   4   3   4   0   0   0)

     celldm(1)=   4.330000  celldm(2)=   0.000000  celldm(3)=   9.353349
     celldm(4)=   0.000000  celldm(5)=   0.000000  celldm(6)=   0.000000

     crystal axes: (cart. coord. in units of alat)
               a(1) = (   1.061794   0.000000   0.000000 )  
               a(2) = (  -0.530897   0.919540   0.000000 )  
               a(3) = (   0.000000   0.000000   9.353349 )  

     reciprocal axes: (cart. coord. in units 2 pi/alat)
               b(1) = (  0.941802  0.543750  0.000000 )  
               b(2) = ( -0.000000  1.087500  0.000000 )  
               b(3) = (  0.000000  0.000000  0.106914 )  


     PseudoPot. # 1 for C  read from file:
     /home/yhkim/qe-6.7/pseudo/ONCV1/1.2/C_ONCV_PBE-1.2.upf
     MD5 check sum: 1a5f83a7b1f58d24996abe00ed223ac6
     Pseudo is Norm-conserving, Zval =  4.0
     Generated using ONCVPSP code by D. R. Hamann
     Using radial grid of  602 points,  4 beta functions with: 
                l(1) =   0
                l(2) =   0
                l(3) =   1
                l(4) =   1

     atomic species   valence    mass     pseudopotential
        C              4.00    12.01070     C ( 1.00)

     24 Sym. Ops., with inversion, found



   Cartesian axes

     site n.     atom                  positions (alat units)
         1           C   tau(   1) = (  -0.0000000   0.6130270   4.6766744  )
         2           C   tau(   2) = (   0.5308969   0.3065135   4.6766744  )

     number of k points=    27  Methfessel-Paxton smearing, width (Ry)=  0.0100
                       cart. coord. in units 2pi/alat
        k(    1) = (   0.0000000   0.0000000   0.0000000), wk =   0.0088889
        k(    2) = (  -0.0000000   0.0725000   0.0000000), wk =   0.0533333
        k(    3) = (  -0.0000000   0.1450000   0.0000000), wk =   0.0533333
        k(    4) = (  -0.0000000   0.2174999   0.0000000), wk =   0.0533333
        k(    5) = (  -0.0000000   0.2899999   0.0000000), wk =   0.0533333
        k(    6) = (  -0.0000000   0.3624999   0.0000000), wk =   0.0533333
        k(    7) = (  -0.0000000   0.4349999   0.0000000), wk =   0.0533333
        k(    8) = (  -0.0000000   0.5074999   0.0000000), wk =   0.0533333
        k(    9) = (   0.0627868   0.1087500   0.0000000), wk =   0.0533333
        k(   10) = (   0.0627868   0.1812500   0.0000000), wk =   0.1066667
        k(   11) = (   0.0627868   0.2537499   0.0000000), wk =   0.1066667
        k(   12) = (   0.0627868   0.3262499   0.0000000), wk =   0.1066667
        k(   13) = (   0.0627868   0.3987499   0.0000000), wk =   0.1066667
        k(   14) = (   0.0627868   0.4712499   0.0000000), wk =   0.1066667
        k(   15) = (   0.0627868   0.5437499   0.0000000), wk =   0.0533333
        k(   16) = (   0.1255737   0.2174999   0.0000000), wk =   0.0533333
        k(   17) = (   0.1255737   0.2899999   0.0000000), wk =   0.1066667
        k(   18) = (   0.1255737   0.3624999   0.0000000), wk =   0.1066667
        k(   19) = (   0.1255737   0.4349999   0.0000000), wk =   0.1066667
        k(   20) = (   0.1255737   0.5074999   0.0000000), wk =   0.1066667
        k(   21) = (   0.1883605   0.3262499   0.0000000), wk =   0.0533333
        k(   22) = (   0.1883605   0.3987499   0.0000000), wk =   0.1066667
        k(   23) = (   0.1883605   0.4712499   0.0000000), wk =   0.1066667
        k(   24) = (   0.1883605   0.5437499   0.0000000), wk =   0.0533333
        k(   25) = (   0.2511473   0.4349999   0.0000000), wk =   0.0533333
        k(   26) = (   0.2511473   0.5074999   0.0000000), wk =   0.1066667
        k(   27) = (   0.3139341   0.5437499   0.0000000), wk =   0.0177778

     Dense  grid:    35517 G-vectors     FFT dimensions: (  24,  24, 192)

     Estimated max dynamical RAM per process >       1.94 MB

     Estimated total dynamical RAM >      62.13 MB
 ----2D----2D----2D----2D----2D----2D----2D----2D----2D----2D----2D----2D
  The code is running with the 2D cutoff
  Please refer to:
  Sohier, T., Calandra, M., & Mauri, F. (2017), 
  Density functional perturbation theory for gated two-dimensional heterostructu
 res:
  Theoretical developments and application to flexural phonons in graphene.
  Physical Review B, 96(7), 75448. https://doi.org/10.1103/PhysRevB.96.075448
 ----2D----2D----2D----2D----2D----2D----2D----2D----2D----2D----2D----2D

     Initial potential from superposition of free atoms

     starting charge    7.98607, renormalised to    8.00000

     negative rho (up, down):  1.097E-04 0.000E+00
     Starting wfcs are random

     total cpu time spent up to now is       19.3 secs

     Self-consistent Calculation

     iteration #  1     ecut=    50.00 Ry     beta= 0.70
     Davidson diagonalization with overlap
     c_bands:  5 eigenvalues not converged
     c_bands:  2 eigenvalues not converged
     c_bands:  5 eigenvalues not converged
     c_bands:  5 eigenvalues not converged
     c_bands:  4 eigenvalues not converged
     c_bands:  3 eigenvalues not converged
     c_bands:  3 eigenvalues not converged
     c_bands:  2 eigenvalues not converged
     c_bands:  3 eigenvalues not converged
     c_bands:  5 eigenvalues not converged
     c_bands:  4 eigenvalues not converged
     c_bands:  4 eigenvalues not converged
     c_bands:  3 eigenvalues not converged
     c_bands:  2 eigenvalues not converged
     c_bands:  2 eigenvalues not converged
     c_bands:  5 eigenvalues not converged
     c_bands:  4 eigenvalues not converged
     c_bands:  3 eigenvalues not converged
     c_bands:  3 eigenvalues not converged
     c_bands:  3 eigenvalues not converged
     c_bands:  4 eigenvalues not converged
     c_bands:  3 eigenvalues not converged
     c_bands:  3 eigenvalues not converged
     c_bands:  3 eigenvalues not converged
     c_bands:  3 eigenvalues not converged
     c_bands:  3 eigenvalues not converged
     c_bands:  3 eigenvalues not converged
     ethr =  1.00E-06,  avg # of iterations = 21.5

     negative rho (up, down):  2.181E-05 0.000E+00

     total cpu time spent up to now is       20.0 secs

     total energy              =     -22.75620200 Ry
     estimated scf accuracy    <       0.21297349 Ry

     iteration #  2     ecut=    50.00 Ry     beta= 0.70
     Davidson diagonalization with overlap
     ethr =  2.66E-03,  avg # of iterations =  2.4

     negative rho (up, down):  2.667E-06 0.000E+00

     total cpu time spent up to now is       20.1 secs

     total energy              =     -22.78853813 Ry
     estimated scf accuracy    <       0.00238775 Ry

     iteration #  3     ecut=    50.00 Ry     beta= 0.70
     Davidson diagonalization with overlap
     ethr =  2.98E-05,  avg # of iterations =  9.4

     total cpu time spent up to now is       20.3 secs

     total energy              =     -22.78895289 Ry
     estimated scf accuracy    <       0.00017603 Ry

     iteration #  4     ecut=    50.00 Ry     beta= 0.70
     Davidson diagonalization with overlap
     ethr =  2.20E-06,  avg # of iterations =  5.5

     total cpu time spent up to now is       20.5 secs

     total energy              =     -22.78896689 Ry
     estimated scf accuracy    <       0.00000123 Ry

     iteration #  5     ecut=    50.00 Ry     beta= 0.70
     Davidson diagonalization with overlap
     ethr =  1.54E-08,  avg # of iterations =  3.8

     total cpu time spent up to now is       20.6 secs

     total energy              =     -22.78896828 Ry
     estimated scf accuracy    <       0.00000004 Ry

     iteration #  6     ecut=    50.00 Ry     beta= 0.70
     Davidson diagonalization with overlap
     ethr =  4.58E-10,  avg # of iterations =  2.4

     total cpu time spent up to now is       20.7 secs

     total energy              =     -22.78896829 Ry
     estimated scf accuracy    <          1.0E-09 Ry

     iteration #  7     ecut=    50.00 Ry     beta= 0.70
     Davidson diagonalization with overlap
     ethr =  1.25E-11,  avg # of iterations =  3.0

     total cpu time spent up to now is       20.9 secs

     End of self-consistent calculation

          k = 0.0000 0.0000 0.0000 (  4399 PWs)   bands (ev):

   -23.9971 -12.0292  -7.1927  -7.1927  -0.9879  -0.2042   0.5817   0.9371

          k =-0.0000 0.0725 0.0000 (  4395 PWs)   bands (ev):

   -23.8896 -11.8999  -7.6211  -7.4229  -0.8415  -0.0557   0.7312   1.0860

          k =-0.0000 0.1450 0.0000 (  4387 PWs)   bands (ev):

   -23.5681 -11.5129  -8.7632  -8.0082  -0.4024   0.3896   1.1797   1.5324

          k =-0.0000 0.2175 0.0000 (  4399 PWs)   bands (ev):

   -23.0350 -10.8740 -10.3413  -8.7410   0.3289   1.1295   1.9270   2.2744

          k =-0.0000 0.2900 0.0000 (  4429 PWs)   bands (ev):

   -22.2945 -12.1121 -10.0014  -9.4525   1.3505   2.1365   2.9188   2.9716

          k =-0.0000 0.3625 0.0000 (  4445 PWs)   bands (ev):

   -21.3535 -13.9153 -10.0448  -8.9282   0.9541   2.6548   3.5188   3.9551

          k =-0.0000 0.4350 0.0000 (  4451 PWs)   bands (ev):

   -20.2262 -15.6552 -10.4618  -7.7405  -0.8705   3.7305   4.2972   5.1285

          k =-0.0000 0.5075 0.0000 (  4453 PWs)   bands (ev):

   -18.9773 -17.2201 -10.6768  -6.7427  -2.2077   3.6542   6.1347   7.0118

          k = 0.0628 0.1087 0.0000 (  4389 PWs)   bands (ev):

   -23.6750 -11.6408  -8.3529  -7.8871  -0.5487   0.2413   1.0302   1.3838

          k = 0.0628 0.1812 0.0000 (  4406 PWs)   bands (ev):

   -23.2480 -11.1287  -9.6217  -8.6391   0.0368   0.8342   1.6283   1.9784

          k = 0.0628 0.2537 0.0000 (  4410 PWs)   bands (ev):

   -22.6112 -11.2354 -10.3718  -9.4204   0.9140   1.7181   2.5251   2.8625

          k = 0.0628 0.3262 0.0000 (  4444 PWs)   bands (ev):

   -21.7704 -12.9927 -10.1041  -9.3942   1.8301   2.0795   2.9320   3.7178

          k = 0.0628 0.3987 0.0000 (  4444 PWs)   bands (ev):

   -20.7353 -14.7505 -10.6218  -8.2468  -0.0302   3.5196   4.3414   4.3873

          k = 0.0628 0.4712 0.0000 (  4445 PWs)   bands (ev):

   -19.5319 -16.4111 -10.9432  -7.0862  -1.6664   4.1625   5.2834   6.1287

          k = 0.0628 0.5437 0.0000 (  4426 PWs)   bands (ev):

   -18.5073 -17.5913 -11.0522  -6.4701  -2.4445   4.1179   7.1826   7.3363

          k = 0.1256 0.2175 0.0000 (  4403 PWs)   bands (ev):

   -22.7172 -10.7351 -10.4956  -9.6355   0.7687   1.5735   2.3762   2.7204

          k = 0.1256 0.2900 0.0000 (  4422 PWs)   bands (ev):

   -21.9802 -12.1569 -10.5685  -9.6312   1.7909   2.4039   2.6254   3.4226

          k = 0.1256 0.3625 0.0000 (  4435 PWs)   bands (ev):

   -21.0448 -13.7868 -11.2581  -8.5641   0.6729   3.0988   3.9252   4.7648

          k = 0.1256 0.4350 0.0000 (  4455 PWs)   bands (ev):

   -19.9272 -15.4402 -11.7130  -7.3773  -1.0285   4.6779   5.5062   5.5309

          k = 0.1256 0.5075 0.0000 (  4441 PWs)   bands (ev):

   -18.6949 -16.9577 -11.9400  -6.3567  -2.3227   5.4070   6.5475   7.2511

          k = 0.1884 0.3262 0.0000 (  4417 PWs)   bands (ev):

   -21.1487 -13.1764 -11.7827  -8.6716   0.9634   2.9553   3.7638   4.6181

          k = 0.1884 0.3987 0.0000 (  4429 PWs)   bands (ev):

   -20.1291 -14.4913 -12.6207  -7.5385  -0.5743   4.3988   5.1726   6.1091

          k = 0.1884 0.4712 0.0000 (  4436 PWs)   bands (ev):

   -18.9512 -15.9640 -13.0502  -6.3574  -2.0226   6.0997   6.6520   7.2182

          k = 0.1884 0.5437 0.0000 (  4421 PWs)   bands (ev):

   -17.9626 -17.0669 -13.1828  -5.6807  -2.7923   7.1434   7.3219   7.9143

          k = 0.2511 0.4350 0.0000 (  4429 PWs)   bands (ev):

   -19.0444 -15.2675 -13.7965  -6.3721  -1.8656   5.9599   6.4104   7.6996

          k = 0.2511 0.5075 0.0000 (  4422 PWs)   bands (ev):

   -17.8654 -16.3530 -14.3492  -5.2497  -3.0449   6.7691   7.7116   8.8813

          k = 0.3139 0.5437 0.0000 (  4395 PWs)   bands (ev):

   -16.8769 -16.8769 -15.0231  -4.1251  -4.1251   6.5598   9.0264   9.0264

     the Fermi energy is    -4.1251 ev

!    total energy              =     -22.78896829 Ry
     estimated scf accuracy    <          1.2E-11 Ry
     smearing contrib. (-TS)   =      -0.00005015 Ry
     internal energy E=F+TS    =     -22.78891814 Ry

     The total energy is F=E-TS. E is the sum of the following terms:
     one-electron contribution =    -397.44699621 Ry
     hartree contribution      =     199.36962735 Ry
     xc contribution           =      -7.06813409 Ry
     ewald contribution        =     182.35658480 Ry

     convergence has been achieved in   7 iterations

     Forces acting on atoms (cartesian axes, Ry/au):

     atom    1 type  1   force =     0.00000000    0.00000000    0.00000000
     atom    2 type  1   force =     0.00000000    0.00000000    0.00000000

     Total force =     0.000000     Total SCF correction =     0.000000


     Computing stress (Cartesian axis) and pressure

          total   stress  (Ry/bohr**3)                   (kbar)     P=        1.80
   0.00007412  -0.00000000  -0.00000000           10.90       -0.00       -0.00
  -0.00000000   0.00007412   0.00000000           -0.00       10.90        0.00
   0.00000000  -0.00000000  -0.00011144            0.00       -0.00      -16.39


     Writing output data file ./work/LiC433.save/
 
     init_run     :      0.14s CPU      0.16s WALL (       2 calls)
     electrons    :     18.75s CPU     20.35s WALL (       8 calls)
     update_pot   :      0.06s CPU      0.07s WALL (       6 calls)
     forces       :      0.06s CPU      0.07s WALL (       8 calls)
     stress       :      0.16s CPU      0.17s WALL (       8 calls)

     Called by init_run:
     wfcinit      :      0.10s CPU      0.11s WALL (       2 calls)
     potinit      :      0.02s CPU      0.02s WALL (       2 calls)
     hinit0       :      0.01s CPU      0.01s WALL (       2 calls)

     Called by electrons:
     c_bands      :     16.62s CPU     17.92s WALL (     105 calls)
     sum_band     :      1.91s CPU      2.03s WALL (     105 calls)
     v_of_rho     :      0.17s CPU      0.20s WALL (     111 calls)
     mix_rho      :      0.04s CPU      0.04s WALL (     105 calls)

     Called by c_bands:
     init_us_2    :      0.10s CPU      0.11s WALL (    6156 calls)
     cegterg      :     16.32s CPU     17.57s WALL (    2895 calls)

     Called by *egterg:
     cdiaghg      :      1.46s CPU      1.57s WALL (   16262 calls)
     h_psi        :     13.81s CPU     14.87s WALL (   16536 calls)
     g_psi        :      0.04s CPU      0.04s WALL (   13587 calls)

     Called by h_psi:
     h_psi:calbec :      0.45s CPU      0.48s WALL (   16536 calls)
     vloc_psi     :     13.11s CPU     14.11s WALL (   16536 calls)
     add_vuspsi   :      0.13s CPU      0.14s WALL (   16536 calls)

     General routines
     calbec       :      0.46s CPU      0.49s WALL (   17616 calls)
     fft          :      0.16s CPU      0.17s WALL (    1174 calls)
     ffts         :      0.01s CPU      0.01s WALL (     105 calls)
     fftw         :     14.20s CPU     15.26s WALL (  198968 calls)
 
     Parallel routines
     fft_scatt_xy :      0.74s CPU      0.79s WALL (  200247 calls)
     fft_scatt_yz :      6.00s CPU      6.45s WALL (  200247 calls)
 
     PWSCF        :     19.26s CPU     21.13s WALL

 
   This run was terminated on:  14:10:21  19Jan2024            

=------------------------------------------------------------------------------=
   JOB DONE.
=------------------------------------------------------------------------------=
