
     Program PWSCF v.6.7MaX starts on 19Jan2024 at 14: 8:48 

     This program is part of the open-source Quantum ESPRESSO suite
     for quantum simulation of materials; please cite
         "P. Giannozzi et al., J. Phys.:Condens. Matter 21 395502 (2009);
         "P. Giannozzi et al., J. Phys.:Condens. Matter 29 465901 (2017);
          URL http://www.quantum-espresso.org", 
     in publications or presentations arising from this work. More details at
     http://www.quantum-espresso.org/quote

     Parallel version (MPI), running on    32 processors

     MPI processes distributed on     1 nodes
     R & G space division:  proc/nbgrp/npool/nimage =      32
     Waiting for input...
     Reading input from standard input

     Current dimensions of program PWSCF are:
     Max number of different atomic species (ntypx) = 10
     Max number of k-points (npk) =  40000
     Max angular momentum in pseudopotentials (lmaxx) =  3
     Message from routine read_pp_mesh:
     mesh size missing, using the one in header

     Subspace diagonalization in iterative solution of the eigenvalue problem:
     a serial algorithm will be used

 
     Parallelization info
     --------------------
     sticks:   dense  smooth     PW     G-vecs:    dense   smooth      PW
     Min           7       7      2                  939      939     162
     Max           8       8      3                  982      982     201
     Sum         253     253     85                31107    31107    5827
 


     bravais-lattice index     =            4
     lattice parameter (alat)  =       4.3000  a.u.
     unit-cell volume          =     648.5188 (a.u.)^3
     number of atoms/cell      =            2
     number of atomic types    =            1
     number of electrons       =         8.00
     number of Kohn-Sham states=            8
     kinetic-energy cutoff     =      50.0000  Ry
     charge density cutoff     =     200.0000  Ry
     scf convergence threshold =      1.0E-08
     mixing beta               =       0.7000
     number of iterations used =            8  plain     mixing
     energy convergence thresh.=      1.0E-04
     force convergence thresh. =      1.0E-08
     press convergence thresh. =      1.0E-03
     Exchange-correlation= PBE
                           (   1   4   3   4   0   0   0)
     nstep                     =           50


     celldm(1)=   4.300000  celldm(2)=   0.000000  celldm(3)=   9.418605
     celldm(4)=   0.000000  celldm(5)=   0.000000  celldm(6)=   0.000000

     crystal axes: (cart. coord. in units of alat)
               a(1) = (   1.000000   0.000000   0.000000 )  
               a(2) = (  -0.500000   0.866025   0.000000 )  
               a(3) = (   0.000000   0.000000   9.418605 )  

     reciprocal axes: (cart. coord. in units 2 pi/alat)
               b(1) = (  1.000000  0.577350  0.000000 )  
               b(2) = (  0.000000  1.154701  0.000000 )  
               b(3) = (  0.000000  0.000000  0.106173 )  


     PseudoPot. # 1 for C  read from file:
     /home/yhkim/qe-6.7/pseudo/ONCV1/1.2/C_ONCV_PBE-1.2.upf
     MD5 check sum: 1a5f83a7b1f58d24996abe00ed223ac6
     Pseudo is Norm-conserving, Zval =  4.0
     Generated using ONCVPSP code by D. R. Hamann
     Using radial grid of  602 points,  4 beta functions with: 
                l(1) =   0
                l(2) =   0
                l(3) =   1
                l(4) =   1

     atomic species   valence    mass     pseudopotential
        C              4.00    12.01070     C ( 1.00)

     24 Sym. Ops., with inversion, found



   Cartesian axes

     site n.     atom                  positions (alat units)
         1           C   tau(   1) = (  -0.0000000   0.5773503   4.7093023  )
         2           C   tau(   2) = (   0.5000000   0.2886751   4.7093023  )

     number of k points=    27  Methfessel-Paxton smearing, width (Ry)=  0.0100
                       cart. coord. in units 2pi/alat
        k(    1) = (   0.0000000   0.0000000   0.0000000), wk =   0.0088889
        k(    2) = (   0.0000000   0.0769800   0.0000000), wk =   0.0533333
        k(    3) = (   0.0000000   0.1539601   0.0000000), wk =   0.0533333
        k(    4) = (   0.0000000   0.2309401   0.0000000), wk =   0.0533333
        k(    5) = (   0.0000000   0.3079201   0.0000000), wk =   0.0533333
        k(    6) = (   0.0000000   0.3849002   0.0000000), wk =   0.0533333
        k(    7) = (   0.0000000   0.4618802   0.0000000), wk =   0.0533333
        k(    8) = (   0.0000000   0.5388603   0.0000000), wk =   0.0533333
        k(    9) = (   0.0666667   0.1154701   0.0000000), wk =   0.0533333
        k(   10) = (   0.0666667   0.1924501   0.0000000), wk =   0.1066667
        k(   11) = (   0.0666667   0.2694301   0.0000000), wk =   0.1066667
        k(   12) = (   0.0666667   0.3464102   0.0000000), wk =   0.1066667
        k(   13) = (   0.0666667   0.4233902   0.0000000), wk =   0.1066667
        k(   14) = (   0.0666667   0.5003702   0.0000000), wk =   0.1066667
        k(   15) = (   0.0666667   0.5773503   0.0000000), wk =   0.0533333
        k(   16) = (   0.1333333   0.2309401   0.0000000), wk =   0.0533333
        k(   17) = (   0.1333333   0.3079201   0.0000000), wk =   0.1066667
        k(   18) = (   0.1333333   0.3849002   0.0000000), wk =   0.1066667
        k(   19) = (   0.1333333   0.4618802   0.0000000), wk =   0.1066667
        k(   20) = (   0.1333333   0.5388603   0.0000000), wk =   0.1066667
        k(   21) = (   0.2000000   0.3464102   0.0000000), wk =   0.0533333
        k(   22) = (   0.2000000   0.4233902   0.0000000), wk =   0.1066667
        k(   23) = (   0.2000000   0.5003702   0.0000000), wk =   0.1066667
        k(   24) = (   0.2000000   0.5773503   0.0000000), wk =   0.0533333
        k(   25) = (   0.2666667   0.4618802   0.0000000), wk =   0.0533333
        k(   26) = (   0.2666667   0.5388603   0.0000000), wk =   0.1066667
        k(   27) = (   0.3333333   0.5773503   0.0000000), wk =   0.0177778

     Dense  grid:    31107 G-vectors     FFT dimensions: (  20,  20, 192)

     Estimated max dynamical RAM per process >       1.73 MB

     Estimated total dynamical RAM >      55.46 MB
 ----2D----2D----2D----2D----2D----2D----2D----2D----2D----2D----2D----2D
  The code is running with the 2D cutoff
  Please refer to:
  Sohier, T., Calandra, M., & Mauri, F. (2017), 
  Density functional perturbation theory for gated two-dimensional heterostructu
 res:
  Theoretical developments and application to flexural phonons in graphene.
  Physical Review B, 96(7), 75448. https://doi.org/10.1103/PhysRevB.96.075448
 ----2D----2D----2D----2D----2D----2D----2D----2D----2D----2D----2D----2D

     Initial potential from superposition of free atoms

     starting charge    7.98607, renormalised to    8.00000

     negative rho (up, down):  1.046E-04 0.000E+00
     Starting wfcs are random

     total cpu time spent up to now is        0.1 secs

     Self-consistent Calculation

     iteration #  1     ecut=    50.00 Ry     beta= 0.70
     Davidson diagonalization with overlap
     ethr =  1.00E-02,  avg # of iterations = 11.8

     negative rho (up, down):  8.049E-08 0.000E+00

     total cpu time spent up to now is        0.6 secs

     total energy              =     -22.66586262 Ry
     estimated scf accuracy    <       0.32054796 Ry

     iteration #  2     ecut=    50.00 Ry     beta= 0.70
     Davidson diagonalization with overlap
     ethr =  4.01E-03,  avg # of iterations =  2.1

     total cpu time spent up to now is        0.7 secs

     total energy              =     -22.71380521 Ry
     estimated scf accuracy    <       0.00247685 Ry

     iteration #  3     ecut=    50.00 Ry     beta= 0.70
     Davidson diagonalization with overlap
     ethr =  3.10E-05,  avg # of iterations = 10.6

     total cpu time spent up to now is        1.0 secs

     total energy              =     -22.71517228 Ry
     estimated scf accuracy    <       0.00016626 Ry

     iteration #  4     ecut=    50.00 Ry     beta= 0.70
     Davidson diagonalization with overlap
     ethr =  2.08E-06,  avg # of iterations =  6.3

     total cpu time spent up to now is        1.2 secs

     total energy              =     -22.71520775 Ry
     estimated scf accuracy    <       0.00000160 Ry

     iteration #  5     ecut=    50.00 Ry     beta= 0.70
     Davidson diagonalization with overlap
     ethr =  2.00E-08,  avg # of iterations =  3.9

     total cpu time spent up to now is        1.3 secs

     total energy              =     -22.71521026 Ry
     estimated scf accuracy    <       0.00000015 Ry

     iteration #  6     ecut=    50.00 Ry     beta= 0.70
     Davidson diagonalization with overlap
     ethr =  1.92E-09,  avg # of iterations =  2.0

     total cpu time spent up to now is        1.4 secs

     End of self-consistent calculation

          k = 0.0000 0.0000 0.0000 (  3871 PWs)   bands (ev):

   -25.0503 -12.8813  -6.4103  -1.0236  -0.2091   0.5652   0.9208   2.2454

          k = 0.0000 0.0770 0.0000 (  3859 PWs)   bands (ev):

   -24.9304 -12.7292  -6.8804  -6.6947  -0.8569  -0.0388   0.7361   1.0915

          k = 0.0000 0.1540 0.0000 (  3849 PWs)   bands (ev):

   -24.5712 -12.2752  -8.1403  -7.4110  -0.3562   0.4720   1.2487   1.6033

          k = 0.0000 0.2309 0.0000 (  3834 PWs)   bands (ev):

   -23.9751 -11.5252  -9.8877  -8.2957   0.4790   1.3214   2.1035   2.4549

          k = 0.0000 0.3079 0.0000 (  3870 PWs)   bands (ev):

   -23.1461 -11.8591 -10.4971  -9.1508   1.6467   2.4988   3.2998   3.6313

          k = 0.0000 0.3849 0.0000 (  3864 PWs)   bands (ev):

   -22.0895 -13.8723  -9.8553  -9.2233   2.4245   3.1431   4.0871   4.8358

          k = 0.0000 0.4619 0.0000 (  3854 PWs)   bands (ev):

   -20.8139 -15.8268 -10.3475  -7.8018   0.2009   4.9557   5.9240   6.5027

          k = 0.0000 0.5389 0.0000 (  3902 PWs)   bands (ev):

   -19.3374 -17.6582 -10.6038  -6.5824  -1.4535   6.4200   7.1645   8.1018

          k = 0.0667 0.1155 0.0000 (  3843 PWs)   bands (ev):

   -24.6908 -12.4254  -7.6783  -7.2626  -0.5231   0.3019   1.0779   1.4329

          k = 0.0667 0.1925 0.0000 (  3842 PWs)   bands (ev):

   -24.2132 -11.8240  -9.0723  -8.1712   0.1456   0.9821   1.7618   2.1147

          k = 0.0667 0.2694 0.0000 (  3853 PWs)   bands (ev):

   -23.5008 -10.9336 -10.8709  -9.0972   1.1479   1.9986   2.7877   3.1340

          k = 0.0667 0.3464 0.0000 (  3867 PWs)   bands (ev):

   -22.5582 -12.8339  -9.9002  -9.7780   2.4813   3.2349   3.6913   4.1549

          k = 0.0667 0.4234 0.0000 (  3875 PWs)   bands (ev):

   -21.3926 -14.8044 -10.5081  -8.4126   1.2511   4.1400   5.0736   5.8597

          k = 0.0667 0.5004 0.0000 (  3893 PWs)   bands (ev):

   -20.0173 -16.6907 -10.8845  -7.0104  -0.7588   6.1001   7.0262   7.0829

          k = 0.0667 0.5774 0.0000 (  3886 PWs)   bands (ev):

   -18.5340 -18.3480 -11.0103  -6.2468  -1.7321   6.9457   8.3604   8.5037

          k = 0.1333 0.2309 0.0000 (  3829 PWs)   bands (ev):

   -23.6193 -11.0790 -10.2599  -9.3730   0.9823   1.8308   2.6172   2.9659

          k = 0.1333 0.3079 0.0000 (  3852 PWs)   bands (ev):

   -22.7936 -11.8446 -10.4488 -10.0586   2.1514   3.0099   3.8144   4.1348

          k = 0.1333 0.3849 0.0000 (  3867 PWs)   bands (ev):

   -21.7426 -13.6930 -11.2170  -8.7936   2.1743   3.6487   4.5429   5.3529

          k = 0.1333 0.4619 0.0000 (  3878 PWs)   bands (ev):

   -20.4769 -15.5682 -11.7253  -7.3722   0.0888   5.4661   6.3713   7.2286

          k = 0.1333 0.5389 0.0000 (  3889 PWs)   bands (ev):

   -19.0154 -17.3546 -11.9792  -6.1268  -1.5139   7.5784   8.3626   8.4386

          k = 0.2000 0.3464 0.0000 (  3881 PWs)   bands (ev):

   -21.8598 -12.8879 -11.9161  -8.9238   2.5749   3.4844   4.3519   5.1825

          k = 0.2000 0.4234 0.0000 (  3880 PWs)   bands (ev):

   -20.7084 -14.4002 -12.8202  -7.5742   0.7143   5.1395   5.9875   6.8906

          k = 0.2000 0.5004 0.0000 (  3890 PWs)   bands (ev):

   -19.3576 -16.1320 -13.2492  -6.1515  -1.0510   7.1002   7.7497   8.9399

          k = 0.2000 0.5774 0.0000 (  3915 PWs)   bands (ev):

   -17.9616 -17.6722 -13.3847  -5.3194  -2.0070   8.5797   9.2417   9.4047

          k = 0.2667 0.4619 0.0000 (  3889 PWs)   bands (ev):

   -19.4729 -15.1157 -14.2983  -6.1792  -0.8104   6.9364   7.4582   8.7441

          k = 0.2667 0.5389 0.0000 (  3911 PWs)   bands (ev):

   -18.0678 -16.4850 -14.8436  -4.8244  -2.2253   7.8345   8.9911  10.4810

          k = 0.3333 0.5774 0.0000 (  3939 PWs)   bands (ev):

   -16.8194 -16.8194 -15.9903  -3.4887  -3.4887   7.5351  10.8374  10.8377

     the Fermi energy is    -3.4463 ev

!    total energy              =     -22.71521029 Ry
     estimated scf accuracy    <          5.7E-09 Ry
     smearing contrib. (-TS)   =      -0.00003668 Ry
     internal energy E=F+TS    =     -22.71517361 Ry

     The total energy is F=E-TS. E is the sum of the following terms:
     one-electron contribution =    -455.15090806 Ry
     hartree contribution      =     228.37584188 Ry
     xc contribution           =      -7.37285770 Ry
     ewald contribution        =     211.43275026 Ry

     convergence has been achieved in   6 iterations

     Forces acting on atoms (cartesian axes, Ry/au):

     atom    1 type  1   force =     0.00000000    0.00000000    0.00000000
     atom    2 type  1   force =     0.00000000    0.00000000    0.00000000

     Total force =     0.000000     Total SCF correction =     0.000000


     Computing stress (Cartesian axis) and pressure

          total   stress  (Ry/bohr**3)                   (kbar)     P=      122.54
   0.00131562  -0.00000000   0.00000000          193.53       -0.00        0.00
  -0.00000000   0.00131562   0.00000000           -0.00      193.53        0.00
   0.00000000   0.00000000  -0.00013216            0.00        0.00      -19.44


     BFGS Geometry Optimization
     Energy error            =      0.0E+00
     Gradient error          =      0.0E+00
     Cell gradient error     =      1.3E-03


     number of scf cycles    =   1
     number of bfgs steps    =   0

     enthalpy new            =     -22.7152102902 Ry

     new trust radius        =       0.1675179814 bohr
     new conv_thr            =       0.0000000100 Ry

     new unit-cell volume =    691.88053 a.u.^3 (   102.52612 Ang^3 )
     density =      0.38906 g/cm^3

CELL_PARAMETERS (alat=  4.30000000)
   1.032890476  -0.000000000   0.000000000
  -0.516445238   0.894509391   0.000000000
   0.000000000   0.000000000   9.418604651

ATOMIC_POSITIONS (crystal)
C             0.3333333333        0.6666666667        0.5000000000
C             0.6666666667        0.3333333333        0.5000000000



     Writing output data file ./work/LiC430.save/
     NEW-OLD atomic charge density approx. for the potential

     negative rho (up, down):  8.511E-05 0.000E+00
     extrapolated charge    8.50051, renormalised to    8.00000

     total cpu time spent up to now is        1.5 secs

     Self-consistent Calculation

     iteration #  1     ecut=    50.00 Ry     beta= 0.70
     Davidson diagonalization with overlap
     c_bands:  2 eigenvalues not converged
     c_bands:  2 eigenvalues not converged
     c_bands:  2 eigenvalues not converged
     c_bands:  2 eigenvalues not converged
     c_bands:  3 eigenvalues not converged
     c_bands:  1 eigenvalues not converged
     c_bands:  2 eigenvalues not converged
     c_bands:  2 eigenvalues not converged
     c_bands:  3 eigenvalues not converged
     c_bands:  2 eigenvalues not converged
     c_bands:  3 eigenvalues not converged
     c_bands:  2 eigenvalues not converged
     c_bands:  2 eigenvalues not converged
     c_bands:  2 eigenvalues not converged
     c_bands:  4 eigenvalues not converged
     c_bands:  4 eigenvalues not converged
     c_bands:  5 eigenvalues not converged
     c_bands:  3 eigenvalues not converged
     c_bands:  5 eigenvalues not converged
     c_bands:  5 eigenvalues not converged
     c_bands:  5 eigenvalues not converged
     c_bands:  5 eigenvalues not converged
     c_bands:  5 eigenvalues not converged
     ethr =  1.00E-06,  avg # of iterations = 20.2

     negative rho (up, down):  4.252E-06 0.000E+00

     total cpu time spent up to now is        2.3 secs

     total energy              =     658.86672595 Ry
     estimated scf accuracy    <     377.51525681 Ry

     iteration #  2     ecut=    50.00 Ry     beta= 0.70
     Davidson diagonalization with overlap
     c_bands:  1 eigenvalues not converged
     c_bands:  1 eigenvalues not converged
     c_bands:  5 eigenvalues not converged
     c_bands:  2 eigenvalues not converged
     c_bands:  2 eigenvalues not converged
     c_bands:  1 eigenvalues not converged
     c_bands:  1 eigenvalues not converged
     c_bands:  1 eigenvalues not converged
     c_bands:  1 eigenvalues not converged
     c_bands:  1 eigenvalues not converged
     c_bands:  1 eigenvalues not converged
     c_bands:  4 eigenvalues not converged
     c_bands:  3 eigenvalues not converged
     c_bands:  5 eigenvalues not converged
     ethr =  1.00E-02,  avg # of iterations = 38.3

     negative rho (up, down):  1.539E-06 0.000E+00

     total cpu time spent up to now is        3.8 secs

     total energy              =    -148.15500380 Ry
     estimated scf accuracy    <     192.20983259 Ry

     iteration #  3     ecut=    50.00 Ry     beta= 0.70
     Davidson diagonalization with overlap
     ethr =  1.00E-02,  avg # of iterations =  5.4

     negative rho (up, down):  1.253E-07 0.000E+00

     total cpu time spent up to now is        4.0 secs

     total energy              =     -55.31417429 Ry
     estimated scf accuracy    <      66.38262916 Ry

     iteration #  4     ecut=    50.00 Ry     beta= 0.70
     Davidson diagonalization with overlap
     ethr =  1.00E-02,  avg # of iterations =  3.2

     negative rho (up, down):  1.510E-07 0.000E+00

     total cpu time spent up to now is        4.1 secs

     total energy              =     -49.06711084 Ry
     estimated scf accuracy    <      17.41292621 Ry

     iteration #  5     ecut=    50.00 Ry     beta= 0.70
     Davidson diagonalization with overlap
     ethr =  1.00E-02,  avg # of iterations =  1.7

     total cpu time spent up to now is        4.3 secs

     total energy              =     -25.75505362 Ry
     estimated scf accuracy    <      14.05486694 Ry

     iteration #  6     ecut=    50.00 Ry     beta= 0.70
     Davidson diagonalization with overlap
     ethr =  1.00E-02,  avg # of iterations =  4.4

     negative rho (up, down):  6.124E-08 0.000E+00

     total cpu time spent up to now is        4.4 secs

     total energy              =     -42.45753700 Ry
     estimated scf accuracy    <       1.78727594 Ry

     iteration #  7     ecut=    50.00 Ry     beta= 0.70
     Davidson diagonalization with overlap
     ethr =  1.00E-02,  avg # of iterations =  2.3

     total cpu time spent up to now is        4.5 secs

     total energy              =     -30.61164260 Ry
     estimated scf accuracy    <      10.37587094 Ry

     iteration #  8     ecut=    50.00 Ry     beta= 0.70
     Davidson diagonalization with overlap
     ethr =  1.00E-02,  avg # of iterations =  1.0

     negative rho (up, down):  5.534E-04 0.000E+00

     total cpu time spent up to now is        4.6 secs

     total energy              =     -24.60551875 Ry
     estimated scf accuracy    <       4.17952678 Ry

     iteration #  9     ecut=    50.00 Ry     beta= 0.70
     Davidson diagonalization with overlap
     ethr =  1.00E-02,  avg # of iterations =  2.1

     negative rho (up, down):  1.056E-03 0.000E+00

     total cpu time spent up to now is        4.8 secs

     total energy              =     -28.01295015 Ry
     estimated scf accuracy    <       1.03783784 Ry

     iteration # 10     ecut=    50.00 Ry     beta= 0.70
     Davidson diagonalization with overlap
     ethr =  1.00E-02,  avg # of iterations =  1.0

     total cpu time spent up to now is        4.9 secs

     total energy              =     -22.66939469 Ry
     estimated scf accuracy    <       2.76018008 Ry

     iteration # 11     ecut=    50.00 Ry     beta= 0.70
     Davidson diagonalization with overlap
     ethr =  1.00E-02,  avg # of iterations =  5.6

     negative rho (up, down):  1.135E-04 0.000E+00

     total cpu time spent up to now is        5.1 secs

     total energy              =     -22.77846915 Ry
     estimated scf accuracy    <       0.05721657 Ry

     iteration # 12     ecut=    50.00 Ry     beta= 0.70
     Davidson diagonalization with overlap
     ethr =  7.15E-04,  avg # of iterations =  8.0

     negative rho (up, down):  1.247E-04 0.000E+00

     total cpu time spent up to now is        5.3 secs

     total energy              =     -22.76239177 Ry
     estimated scf accuracy    <       0.04911408 Ry

     iteration # 13     ecut=    50.00 Ry     beta= 0.70
     Davidson diagonalization with overlap
     ethr =  6.14E-04,  avg # of iterations =  1.3

     negative rho (up, down):  1.767E-03 0.000E+00

     total cpu time spent up to now is        5.4 secs

     total energy              =     -22.76495776 Ry
     estimated scf accuracy    <       0.01851616 Ry

     iteration # 14     ecut=    50.00 Ry     beta= 0.70
     Davidson diagonalization with overlap
     ethr =  2.31E-04,  avg # of iterations =  1.3

     negative rho (up, down):  6.222E-03 0.000E+00

     total cpu time spent up to now is        5.5 secs

     total energy              =     -22.76613284 Ry
     estimated scf accuracy    <       0.01840754 Ry

     iteration # 15     ecut=    50.00 Ry     beta= 0.70
     Davidson diagonalization with overlap
     ethr =  2.30E-04,  avg # of iterations =  1.0

     negative rho (up, down):  5.385E-03 0.000E+00

     total cpu time spent up to now is        5.6 secs

     total energy              =     -22.77508158 Ry
     estimated scf accuracy    <       0.01914957 Ry

     iteration # 16     ecut=    50.00 Ry     beta= 0.70
     Davidson diagonalization with overlap
     ethr =  2.30E-04,  avg # of iterations =  1.0

     negative rho (up, down):  8.789E-03 0.000E+00

     total cpu time spent up to now is        5.7 secs

     total energy              =     -22.78170356 Ry
     estimated scf accuracy    <       0.04073358 Ry

     iteration # 17     ecut=    50.00 Ry     beta= 0.70
     Davidson diagonalization with overlap
     ethr =  2.30E-04,  avg # of iterations =  1.1

     negative rho (up, down):  1.036E-02 0.000E+00

     total cpu time spent up to now is        5.8 secs

     total energy              =     -22.78191835 Ry
     estimated scf accuracy    <       0.05439012 Ry

     iteration # 18     ecut=    50.00 Ry     beta= 0.70
     Davidson diagonalization with overlap
     ethr =  2.30E-04,  avg # of iterations =  1.0

     total cpu time spent up to now is        5.9 secs

     total energy              =     -22.74867092 Ry
     estimated scf accuracy    <       0.05443134 Ry

     iteration # 19     ecut=    50.00 Ry     beta= 0.70
     Davidson diagonalization with overlap
     ethr =  2.30E-04,  avg # of iterations =  5.0

     total cpu time spent up to now is        6.1 secs

     total energy              =     -22.75774850 Ry
     estimated scf accuracy    <       0.00005384 Ry

     iteration # 20     ecut=    50.00 Ry     beta= 0.70
     Davidson diagonalization with overlap
     c_bands:  1 eigenvalues not converged
     c_bands:  1 eigenvalues not converged
     ethr =  6.73E-07,  avg # of iterations =  9.8

     total cpu time spent up to now is        6.4 secs

     total energy              =     -22.75778798 Ry
     estimated scf accuracy    <       0.00001094 Ry

     iteration # 21     ecut=    50.00 Ry     beta= 0.70
     Davidson diagonalization with overlap
     ethr =  1.37E-07,  avg # of iterations =  5.4

     total cpu time spent up to now is        6.6 secs

     total energy              =     -22.75778936 Ry
     estimated scf accuracy    <       0.00000010 Ry

     iteration # 22     ecut=    50.00 Ry     beta= 0.70
     Davidson diagonalization with overlap
     ethr =  1.21E-09,  avg # of iterations =  4.1

     total cpu time spent up to now is        6.7 secs

     End of self-consistent calculation

          k = 0.0000 0.0000 0.0000 (  3871 PWs)   bands (ev):

   -24.5387 -12.4522  -6.7807  -6.7807  -1.0069  -0.2063   0.5737   0.9292

          k = 0.0000 0.0745 0.0000 (  3859 PWs)   bands (ev):

   -24.4248 -12.3114  -7.2313  -7.0378  -0.8504  -0.0468   0.7339   1.0890

          k = 0.0000 0.1491 0.0000 (  3849 PWs)   bands (ev):

   -24.0836 -11.8908  -8.4350  -7.6887  -0.3804   0.4312   1.2145   1.5682

          k = 0.0000 0.2236 0.0000 (  3834 PWs)   bands (ev):

   -23.5174 -11.1963 -10.1017  -8.4979   0.4030   1.2260   2.0155   2.3650

          k = 0.0000 0.2981 0.0000 (  3870 PWs)   bands (ev):

   -22.7303 -11.9796 -10.2460  -9.2846   1.4978   2.3226   3.1363   3.4443

          k = 0.0000 0.3726 0.0000 (  3864 PWs)   bands (ev):

   -21.7278 -13.8927  -9.9337  -9.0710   1.7067   2.8994   3.8017   4.5710

          k = 0.0000 0.4472 0.0000 (  3854 PWs)   bands (ev):

   -20.5201 -15.7454 -10.3871  -7.7665  -0.3223   4.5747   5.1966   5.5275

          k = 0.0000 0.5217 0.0000 (  3902 PWs)   bands (ev):

   -19.1463 -17.4585 -10.6244  -6.6594  -1.8188   5.0512   6.6388   7.5592

          k = 0.0645 0.1118 0.0000 (  3843 PWs)   bands (ev):

   -24.1972 -12.0297  -7.9981  -7.5532  -0.5370   0.2721   1.0543   1.4086

          k = 0.0645 0.1863 0.0000 (  3842 PWs)   bands (ev):

   -23.7436 -11.4730  -9.3316  -8.3854   0.0902   0.9086   1.6953   2.0468

          k = 0.0645 0.2609 0.0000 (  3853 PWs)   bands (ev):

   -23.0671 -11.0439 -10.6491  -9.2416   1.0301   1.8591   2.6567   2.9997

          k = 0.0645 0.3354 0.0000 (  3867 PWs)   bands (ev):

   -22.1723 -12.9090  -9.9868  -9.5820   2.2798   2.6553   3.2079   3.9373

          k = 0.0645 0.4099 0.0000 (  3875 PWs)   bands (ev):

   -21.0672 -14.7787 -10.5515  -8.3254   0.6227   3.8323   4.7312   5.5089

          k = 0.0645 0.4844 0.0000 (  3893 PWs)   bands (ev):

   -19.7712 -16.5606 -10.9009  -7.0439  -1.2011   5.4899   5.8067   6.6076

          k = 0.0645 0.5590 0.0000 (  3886 PWs)   bands (ev):

   -18.5376 -17.9596 -11.0174  -6.3546  -2.0769   5.5410   7.7716   7.9185

          k = 0.1291 0.2236 0.0000 (  3829 PWs)   bands (ev):

   -23.1795 -10.7835 -10.4859  -9.4867   0.8746   1.7026   2.4969   2.8434

          k = 0.1291 0.2981 0.0000 (  3852 PWs)   bands (ev):

   -22.3957 -11.9932 -10.4961  -9.8407   1.9704   2.8008   3.3986   3.6188

          k = 0.1291 0.3726 0.0000 (  3867 PWs)   bands (ev):

   -21.3987 -13.7365 -11.2291  -8.6743   1.4353   3.3734   4.2345   5.0596

          k = 0.1291 0.4472 0.0000 (  3878 PWs)   bands (ev):

   -20.2015 -15.5061 -11.7124  -7.3695  -0.4586   5.0742   5.9401   6.7952

          k = 0.1291 0.5217 0.0000 (  3889 PWs)   bands (ev):

   -18.8442 -17.1703 -11.9525  -6.2370  -1.9073   6.8440   7.1227   7.8479

          k = 0.1936 0.3354 0.0000 (  3881 PWs)   bands (ev):

   -21.5097 -13.0314 -11.8412  -8.7938   1.7777   3.2194   4.0586   4.9007

          k = 0.1936 0.4099 0.0000 (  3880 PWs)   bands (ev):

   -20.4191 -14.4416 -12.7224  -7.5519   0.0788   4.7694   5.5811   6.5005

          k = 0.1936 0.4844 0.0000 (  3890 PWs)   bands (ev):

   -19.1494 -16.0474 -13.1559  -6.2493  -1.5272   6.6022   7.2014   8.4085

          k = 0.1936 0.5590 0.0000 (  3915 PWs)   bands (ev):

   -17.9765 -17.3516 -13.2913  -5.4955  -2.3906   7.9483   8.5835   8.6355

          k = 0.2582 0.4472 0.0000 (  3889 PWs)   bands (ev):

   -19.2552 -15.1970 -14.0468  -6.2707  -1.3301   6.4494   6.9341   8.2516

          k = 0.2582 0.5217 0.0000 (  3911 PWs)   bands (ev):

   -17.9587 -16.4109 -14.6171  -5.0317  -2.6278   7.3006   8.3585   9.8292

          k = 0.3227 0.5590 0.0000 (  3939 PWs)   bands (ev):

   -16.8591 -16.8591 -15.4935  -3.8017  -3.8017   7.0467   9.9776   9.9777

     the Fermi energy is    -3.8017 ev

!    total energy              =     -22.75778944 Ry
     estimated scf accuracy    <          4.1E-09 Ry
     smearing contrib. (-TS)   =      -0.00005015 Ry
     internal energy E=F+TS    =     -22.75773929 Ry

     The total energy is F=E-TS. E is the sum of the following terms:
     one-electron contribution =    -426.24160216 Ry
     hartree contribution      =     213.84515743 Ry
     xc contribution           =      -7.22257410 Ry
     ewald contribution        =     196.86127954 Ry

     convergence has been achieved in  22 iterations

     Forces acting on atoms (cartesian axes, Ry/au):

     atom    1 type  1   force =     0.00000000    0.00000000    0.00000000
     atom    2 type  1   force =    -0.00000000   -0.00000000    0.00000000

     Total force =     0.000000     Total SCF correction =     0.000000


     Computing stress (Cartesian axis) and pressure

          total   stress  (Ry/bohr**3)                   (kbar)     P=       51.65
   0.00059395   0.00000000   0.00000000           87.37        0.00        0.00
   0.00000000   0.00059395   0.00000000            0.00       87.37        0.00
   0.00000000   0.00000000  -0.00013456            0.00        0.00      -19.79

     Energy error            =      4.3E-02
     Gradient error          =      1.7E-26
     Cell gradient error     =      5.9E-04


     number of scf cycles    =   2
     number of bfgs steps    =   1

     enthalpy old            =     -22.7152102902 Ry
     enthalpy new            =     -22.7577894391 Ry

     CASE: enthalpy_new < enthalpy_old

     new trust radius        =       0.1463689973 bohr
     new conv_thr            =            1.0E-10 Ry

     new unit-cell volume =    730.91648 a.u.^3 (   108.31065 Ang^3 )
     density =      0.36828 g/cm^3

CELL_PARAMETERS (alat=  4.30000000)
   1.061628561  -0.000000000   0.000000000
  -0.530814280   0.919397303   0.000000000
   0.000000000   0.000000000   9.418604651

ATOMIC_POSITIONS (crystal)
C             0.3333333333        0.6666666667        0.5000000000
C             0.6666666667        0.3333333333        0.5000000000



     Writing output data file ./work/LiC430.save/
     NEW-OLD atomic charge density approx. for the potential

     negative rho (up, down):  6.406E-05 0.000E+00
     extrapolated charge    8.42651, renormalised to    8.00000

     total cpu time spent up to now is        6.8 secs

     Self-consistent Calculation

     iteration #  1     ecut=    50.00 Ry     beta= 0.70
     Davidson diagonalization with overlap
     c_bands:  1 eigenvalues not converged
     c_bands:  1 eigenvalues not converged
     c_bands:  1 eigenvalues not converged
     c_bands:  1 eigenvalues not converged
     c_bands:  2 eigenvalues not converged
     c_bands:  3 eigenvalues not converged
     c_bands:  1 eigenvalues not converged
     c_bands:  1 eigenvalues not converged
     c_bands:  1 eigenvalues not converged
     c_bands:  2 eigenvalues not converged
     c_bands:  4 eigenvalues not converged
     c_bands:  3 eigenvalues not converged
     c_bands:  2 eigenvalues not converged
     c_bands:  1 eigenvalues not converged
     c_bands:  1 eigenvalues not converged
     c_bands:  3 eigenvalues not converged
     c_bands:  5 eigenvalues not converged
     c_bands:  2 eigenvalues not converged
     c_bands:  3 eigenvalues not converged
     c_bands:  4 eigenvalues not converged
     c_bands:  5 eigenvalues not converged
     c_bands:  4 eigenvalues not converged
     c_bands:  4 eigenvalues not converged
     c_bands:  5 eigenvalues not converged
     ethr =  1.00E-06,  avg # of iterations = 19.5

     negative rho (up, down):  1.189E-06 0.000E+00

     total cpu time spent up to now is        7.5 secs

     total energy              =     606.36023998 Ry
     estimated scf accuracy    <     350.23880053 Ry

     iteration #  2     ecut=    50.00 Ry     beta= 0.70
     Davidson diagonalization with overlap
     c_bands:  5 eigenvalues not converged
     c_bands:  5 eigenvalues not converged
     c_bands:  4 eigenvalues not converged
     c_bands:  1 eigenvalues not converged
     c_bands:  3 eigenvalues not converged
     c_bands:  4 eigenvalues not converged
     c_bands:  1 eigenvalues not converged
     c_bands:  5 eigenvalues not converged
     c_bands:  1 eigenvalues not converged
     c_bands:  1 eigenvalues not converged
     c_bands:  3 eigenvalues not converged
     c_bands:  5 eigenvalues not converged
     c_bands:  1 eigenvalues not converged
     ethr =  1.00E-02,  avg # of iterations = 34.9

     negative rho (up, down):  2.575E-07 0.000E+00

     total cpu time spent up to now is        8.9 secs

     total energy              =    -138.35256630 Ry
     estimated scf accuracy    <     178.52447629 Ry

     iteration #  3     ecut=    50.00 Ry     beta= 0.70
     Davidson diagonalization with overlap
     c_bands:  3 eigenvalues not converged
     c_bands:  1 eigenvalues not converged
     ethr =  1.00E-02,  avg # of iterations =  6.4

     total cpu time spent up to now is        9.1 secs

     total energy              =     -52.26425614 Ry
     estimated scf accuracy    <      61.66651431 Ry

     iteration #  4     ecut=    50.00 Ry     beta= 0.70
     Davidson diagonalization with overlap
     ethr =  1.00E-02,  avg # of iterations =  4.0

     total cpu time spent up to now is        9.3 secs

     total energy              =     -47.29735683 Ry
     estimated scf accuracy    <      15.91995565 Ry

     iteration #  5     ecut=    50.00 Ry     beta= 0.70
     Davidson diagonalization with overlap
     ethr =  1.00E-02,  avg # of iterations =  1.4

     total cpu time spent up to now is        9.4 secs

     total energy              =     -24.85700760 Ry
     estimated scf accuracy    <      13.14771926 Ry

     iteration #  6     ecut=    50.00 Ry     beta= 0.70
     Davidson diagonalization with overlap
     ethr =  1.00E-02,  avg # of iterations =  4.4

     total cpu time spent up to now is        9.6 secs

     total energy              =     -31.56109424 Ry
     estimated scf accuracy    <       1.29513625 Ry

     iteration #  7     ecut=    50.00 Ry     beta= 0.70
     Davidson diagonalization with overlap
     ethr =  1.00E-02,  avg # of iterations =  1.2

     total cpu time spent up to now is        9.7 secs

     total energy              =     -32.26799307 Ry
     estimated scf accuracy    <       4.66111294 Ry

     iteration #  8     ecut=    50.00 Ry     beta= 0.70
     Davidson diagonalization with overlap
     ethr =  1.00E-02,  avg # of iterations =  1.0

     total cpu time spent up to now is        9.8 secs

     total energy              =     -32.51089521 Ry
     estimated scf accuracy    <       5.01875006 Ry

     iteration #  9     ecut=    50.00 Ry     beta= 0.70
     Davidson diagonalization with overlap
     ethr =  1.00E-02,  avg # of iterations =  1.0

     negative rho (up, down):  6.625E-08 0.000E+00

     total cpu time spent up to now is        9.9 secs

     total energy              =     -22.70656169 Ry
     estimated scf accuracy    <       5.19344694 Ry

     iteration # 10     ecut=    50.00 Ry     beta= 0.70
     Davidson diagonalization with overlap
     ethr =  1.00E-02,  avg # of iterations =  2.7

     negative rho (up, down):  7.100E-07 0.000E+00

     total cpu time spent up to now is       10.0 secs

     total energy              =     -22.76475432 Ry
     estimated scf accuracy    <       0.04874533 Ry

     iteration # 11     ecut=    50.00 Ry     beta= 0.70
     Davidson diagonalization with overlap
     ethr =  6.09E-04,  avg # of iterations = 10.2

     negative rho (up, down):  2.433E-04 0.000E+00

     total cpu time spent up to now is       10.3 secs

     total energy              =     -22.77010782 Ry
     estimated scf accuracy    <       0.00509732 Ry

     iteration # 12     ecut=    50.00 Ry     beta= 0.70
     Davidson diagonalization with overlap
     ethr =  6.37E-05,  avg # of iterations =  4.6

     negative rho (up, down):  5.858E-04 0.000E+00

     total cpu time spent up to now is       10.4 secs

     total energy              =     -22.77045379 Ry
     estimated scf accuracy    <       0.00545784 Ry

     iteration # 13     ecut=    50.00 Ry     beta= 0.70
     Davidson diagonalization with overlap
     ethr =  6.37E-05,  avg # of iterations =  1.8

     negative rho (up, down):  3.521E-03 0.000E+00

     total cpu time spent up to now is       10.5 secs

     total energy              =     -22.77999184 Ry
     estimated scf accuracy    <       0.00317976 Ry

     iteration # 14     ecut=    50.00 Ry     beta= 0.70
     Davidson diagonalization with overlap
     ethr =  3.97E-05,  avg # of iterations =  7.4

     negative rho (up, down):  1.935E-03 0.000E+00

     total cpu time spent up to now is       10.7 secs

     total energy              =     -22.77730830 Ry
     estimated scf accuracy    <       0.02937204 Ry

     iteration # 15     ecut=    50.00 Ry     beta= 0.70
     Davidson diagonalization with overlap
     ethr =  3.97E-05,  avg # of iterations =  2.7

     negative rho (up, down):  1.605E-03 0.000E+00

     total cpu time spent up to now is       10.9 secs

     total energy              =     -22.77444938 Ry
     estimated scf accuracy    <       0.01494317 Ry

     iteration # 16     ecut=    50.00 Ry     beta= 0.70
     Davidson diagonalization with overlap
     ethr =  3.97E-05,  avg # of iterations =  3.6

     negative rho (up, down):  1.395E-03 0.000E+00

     total cpu time spent up to now is       11.0 secs

     total energy              =     -22.77544240 Ry
     estimated scf accuracy    <       0.00917972 Ry

     iteration # 17     ecut=    50.00 Ry     beta= 0.70
     Davidson diagonalization with overlap
     ethr =  3.97E-05,  avg # of iterations =  1.5

     negative rho (up, down):  9.610E-04 0.000E+00

     total cpu time spent up to now is       11.1 secs

     total energy              =     -22.77463204 Ry
     estimated scf accuracy    <       0.01019178 Ry

     iteration # 18     ecut=    50.00 Ry     beta= 0.70
     Davidson diagonalization with overlap
     ethr =  3.97E-05,  avg # of iterations =  1.0

     negative rho (up, down):  4.196E-04 0.000E+00

     total cpu time spent up to now is       11.2 secs

     total energy              =     -22.77113963 Ry
     estimated scf accuracy    <       0.00841393 Ry

     iteration # 19     ecut=    50.00 Ry     beta= 0.70
     Davidson diagonalization with overlap
     ethr =  3.97E-05,  avg # of iterations =  4.1

     negative rho (up, down):  2.238E-04 0.000E+00

     total cpu time spent up to now is       11.4 secs

     total energy              =     -22.77106109 Ry
     estimated scf accuracy    <       0.00172992 Ry

     iteration # 20     ecut=    50.00 Ry     beta= 0.70
     Davidson diagonalization with overlap
     ethr =  2.16E-05,  avg # of iterations =  4.0

     total cpu time spent up to now is       11.5 secs

     total energy              =     -22.77086901 Ry
     estimated scf accuracy    <       0.00050066 Ry

     iteration # 21     ecut=    50.00 Ry     beta= 0.70
     Davidson diagonalization with overlap
     c_bands:  1 eigenvalues not converged
     c_bands:  1 eigenvalues not converged
     ethr =  6.26E-06,  avg # of iterations =  8.3

     negative rho (up, down):  1.907E-06 0.000E+00

     total cpu time spent up to now is       11.7 secs

     total energy              =     -22.77094459 Ry
     estimated scf accuracy    <       0.00000180 Ry

     iteration # 22     ecut=    50.00 Ry     beta= 0.70
     Davidson diagonalization with overlap
     ethr =  2.25E-08,  avg # of iterations =  4.5

     total cpu time spent up to now is       11.9 secs

     total energy              =     -22.77094718 Ry
     estimated scf accuracy    <       0.00000017 Ry

     iteration # 23     ecut=    50.00 Ry     beta= 0.70
     Davidson diagonalization with overlap
     ethr =  2.12E-09,  avg # of iterations =  3.6

     total cpu time spent up to now is       12.0 secs

     total energy              =     -22.77094718 Ry
     estimated scf accuracy    <       0.00000005 Ry

     iteration # 24     ecut=    50.00 Ry     beta= 0.70
     Davidson diagonalization with overlap
     ethr =  6.65E-10,  avg # of iterations =  1.5

     total cpu time spent up to now is       12.2 secs

     total energy              =     -22.77094719 Ry
     estimated scf accuracy    <          3.5E-09 Ry

     iteration # 25     ecut=    50.00 Ry     beta= 0.70
     Davidson diagonalization with overlap
     ethr =  4.43E-11,  avg # of iterations =  2.2

     total cpu time spent up to now is       12.3 secs

     End of self-consistent calculation

          k = 0.0000 0.0000 0.0000 (  3871 PWs)   bands (ev):

   -24.1272 -12.1207  -7.0752  -7.0752  -0.9953  -0.2114   0.5661   0.9240

          k = 0.0000 0.0725 0.0000 (  3859 PWs)   bands (ev):

   -24.0183 -11.9889  -7.5119  -7.3110  -0.8469  -0.0606   0.7177   1.0752

          k = 0.0000 0.1450 0.0000 (  3849 PWs)   bands (ev):

   -23.6923 -11.5950  -8.6737  -7.9108  -0.4014   0.3913   1.1727   1.5281

          k = 0.0000 0.2175 0.0000 (  3834 PWs)   bands (ev):

   -23.1513 -10.9451 -10.2779  -8.6604   0.3407   1.1424   1.9308   2.2810

          k = 0.0000 0.2900 0.0000 (  3870 PWs)   bands (ev):

   -22.3997 -12.0805 -10.0571  -9.3933   1.3774   2.1697   2.9910   3.0924

          k = 0.0000 0.3626 0.0000 (  3864 PWs)   bands (ev):

   -21.4436 -13.9106  -9.9985  -8.9614   1.1093   2.7024   3.5692   4.1984

          k = 0.0000 0.4351 0.0000 (  3854 PWs)   bands (ev):

   -20.2962 -15.6758 -10.4211  -7.7502  -0.7595   3.9812   4.3869   5.2030

          k = 0.0000 0.5076 0.0000 (  3902 PWs)   bands (ev):

   -19.0239 -17.2751 -10.6435  -6.7318  -2.1305   3.9229   6.2337   7.1171

          k = 0.0628 0.1088 0.0000 (  3843 PWs)   bands (ev):

   -23.8008 -11.7249  -8.2561  -7.7853  -0.5498   0.2409   1.0210   1.3773

          k = 0.0628 0.1813 0.0000 (  3842 PWs)   bands (ev):

   -23.3673 -11.2040  -9.5440  -8.5568   0.0443   0.8426   1.6278   1.9806

          k = 0.0628 0.2538 0.0000 (  3853 PWs)   bands (ev):

   -22.7212 -11.1885 -10.4336  -9.3572   0.9344   1.7401   2.5375   2.8790

          k = 0.0628 0.3263 0.0000 (  3867 PWs)   bands (ev):

   -21.8672 -12.9738 -10.0565  -9.4374   2.0041   2.1175   2.9767   3.7482

          k = 0.0628 0.3988 0.0000 (  3875 PWs)   bands (ev):

   -20.8147 -14.7586 -10.5867  -8.2677   0.1016   3.5826   4.4505   4.6112

          k = 0.0628 0.4713 0.0000 (  3893 PWs)   bands (ev):

   -19.5917 -16.4474 -10.9148  -7.0822  -1.5733   4.4360   5.3722   6.2200

          k = 0.0628 0.5438 0.0000 (  3886 PWs)   bands (ev):

   -18.5317 -17.6660 -11.0239  -6.4512  -2.3723   4.3947   7.2997   7.4531

          k = 0.1256 0.2175 0.0000 (  3829 PWs)   bands (ev):

   -22.8285 -10.6720 -10.5590  -9.5782   0.7870   1.5930   2.3864   2.7334

          k = 0.1256 0.2900 0.0000 (  3852 PWs)   bands (ev):

   -22.0802 -12.1201 -10.5309  -9.6784   1.8244   2.5631   2.6987   3.4480

          k = 0.1256 0.3626 0.0000 (  3867 PWs)   bands (ev):

   -21.1295 -13.7785 -11.2337  -8.5911   0.8282   3.1522   3.9814   4.8105

          k = 0.1256 0.4351 0.0000 (  3878 PWs)   bands (ev):

   -19.9930 -15.4577 -11.6969  -7.3792  -0.9128   4.7579   5.5886   5.8237

          k = 0.1256 0.5076 0.0000 (  3889 PWs)   bands (ev):

   -18.7356 -17.0073 -11.9260  -6.3360  -2.2398   5.7037   6.6554   7.3680

          k = 0.1884 0.3263 0.0000 (  3881 PWs)   bands (ev):

   -21.2351 -13.1504 -11.7793  -8.7021   1.1274   3.0063   3.8172   4.6609

          k = 0.1884 0.3988 0.0000 (  3880 PWs)   bands (ev):

   -20.1972 -14.4860 -12.6303  -7.5463  -0.4424   4.4724   5.2498   6.1740

          k = 0.1884 0.4713 0.0000 (  3890 PWs)   bands (ev):

   -19.0005 -15.9856 -13.0644  -6.3392  -1.9223   6.2014   6.7592   7.5353

          k = 0.1884 0.5438 0.0000 (  3915 PWs)   bands (ev):

   -17.9815 -17.1255 -13.1999  -5.6469  -2.7131   7.4442   7.4618   8.0513

          k = 0.2512 0.4351 0.0000 (  3889 PWs)   bands (ev):

   -19.0960 -15.2627 -13.8359  -6.3558  -1.7575   6.0585   6.5122   7.7909

          k = 0.2512 0.5076 0.0000 (  3911 PWs)   bands (ev):

   -17.8941 -16.3716 -14.3988  -5.2086  -2.9619   6.8715   7.8455   9.2992

          k = 0.3140 0.5438 0.0000 (  3939 PWs)   bands (ev):

   -16.8873 -16.8873 -15.1084  -4.0632  -4.0632   6.6526   9.2363   9.2363

     the Fermi energy is    -4.0632 ev

!    total energy              =     -22.77094719 Ry
     estimated scf accuracy    <          4.3E-11 Ry
     smearing contrib. (-TS)   =      -0.00005015 Ry
     internal energy E=F+TS    =     -22.77089704 Ry

     The total energy is F=E-TS. E is the sum of the following terms:
     one-electron contribution =    -403.17872632 Ry
     hartree contribution      =     202.25104745 Ry
     xc contribution           =      -7.09859302 Ry
     ewald contribution        =     185.25537485 Ry

     convergence has been achieved in  25 iterations

     Forces acting on atoms (cartesian axes, Ry/au):

     atom    1 type  1   force =     0.00000000    0.00000000    0.00000000
     atom    2 type  1   force =     0.00000000    0.00000000    0.00000000

     Total force =     0.000000     Total SCF correction =     0.000000


     Computing stress (Cartesian axis) and pressure

          total   stress  (Ry/bohr**3)                   (kbar)     P=        3.32
   0.00010180   0.00000000  -0.00000000           14.98        0.00       -0.00
  -0.00000000   0.00010180  -0.00000000           -0.00       14.98       -0.00
  -0.00000000  -0.00000000  -0.00013589           -0.00       -0.00      -19.99

     Energy error            =      1.3E-02
     Gradient error          =      0.0E+00
     Cell gradient error     =      1.0E-04


     number of scf cycles    =   3
     number of bfgs steps    =   2

     enthalpy old            =     -22.7577894391 Ry
     enthalpy new            =     -22.7709471901 Ry

     CASE: enthalpy_new < enthalpy_old

     new trust radius        =       0.0312994347 bohr
     new conv_thr            =            1.0E-10 Ry

     new unit-cell volume =    739.40292 a.u.^3 (   109.56821 Ang^3 )
     density =      0.36405 g/cm^3

CELL_PARAMETERS (alat=  4.30000000)
   1.067773891  -0.000000000   0.000000000
  -0.533886945   0.924719315   0.000000000
   0.000000000   0.000000000   9.418604651

ATOMIC_POSITIONS (crystal)
C             0.3333333333        0.6666666667        0.5000000000
C             0.6666666667        0.3333333333        0.5000000000



     Writing output data file ./work/LiC430.save/
     NEW-OLD atomic charge density approx. for the potential

     negative rho (up, down):  4.212E-06 0.000E+00
     extrapolated charge    8.09166, renormalised to    8.00000

     total cpu time spent up to now is       12.4 secs

     Self-consistent Calculation

     iteration #  1     ecut=    50.00 Ry     beta= 0.70
     Davidson diagonalization with overlap
     c_bands:  1 eigenvalues not converged
     c_bands:  1 eigenvalues not converged
     c_bands:  1 eigenvalues not converged
     c_bands:  1 eigenvalues not converged
     c_bands:  1 eigenvalues not converged
     ethr =  1.00E-06,  avg # of iterations = 13.8

     total cpu time spent up to now is       12.7 secs

     total energy              =     -10.77259104 Ry
     estimated scf accuracy    <       6.83558594 Ry

     iteration #  2     ecut=    50.00 Ry     beta= 0.70
     Davidson diagonalization with overlap
     ethr =  1.00E-02,  avg # of iterations = 10.1

     total cpu time spent up to now is       13.0 secs

     total energy              =     -24.89015662 Ry
     estimated scf accuracy    <       3.71878344 Ry

     iteration #  3     ecut=    50.00 Ry     beta= 0.70
     Davidson diagonalization with overlap
     ethr =  1.00E-02,  avg # of iterations =  1.4

     total cpu time spent up to now is       13.1 secs

     total energy              =     -23.63386856 Ry
     estimated scf accuracy    <       1.23509876 Ry

     iteration #  4     ecut=    50.00 Ry     beta= 0.70
     Davidson diagonalization with overlap
     ethr =  1.00E-02,  avg # of iterations =  1.4

     total cpu time spent up to now is       13.2 secs

     total energy              =     -23.16473160 Ry
     estimated scf accuracy    <       0.49892381 Ry

     iteration #  5     ecut=    50.00 Ry     beta= 0.70
     Davidson diagonalization with overlap
     ethr =  6.24E-03,  avg # of iterations =  1.6

     total cpu time spent up to now is       13.3 secs

     total energy              =     -22.94327056 Ry
     estimated scf accuracy    <       0.22982952 Ry

     iteration #  6     ecut=    50.00 Ry     beta= 0.70
     Davidson diagonalization with overlap
     ethr =  2.87E-03,  avg # of iterations =  3.6

     total cpu time spent up to now is       13.5 secs

     total energy              =     -22.93282446 Ry
     estimated scf accuracy    <       0.10145761 Ry

     iteration #  7     ecut=    50.00 Ry     beta= 0.70
     Davidson diagonalization with overlap
     ethr =  1.27E-03,  avg # of iterations =  1.5

     total cpu time spent up to now is       13.6 secs

     total energy              =     -22.92357888 Ry
     estimated scf accuracy    <       0.09442095 Ry

     iteration #  8     ecut=    50.00 Ry     beta= 0.70
     Davidson diagonalization with overlap
     ethr =  1.18E-03,  avg # of iterations =  1.0

     total cpu time spent up to now is       13.7 secs

     total energy              =     -22.91633054 Ry
     estimated scf accuracy    <       0.08866818 Ry

     iteration #  9     ecut=    50.00 Ry     beta= 0.70
     Davidson diagonalization with overlap
     ethr =  1.11E-03,  avg # of iterations =  1.2

     total cpu time spent up to now is       13.8 secs

     total energy              =     -22.92525456 Ry
     estimated scf accuracy    <       0.08435988 Ry

     iteration # 10     ecut=    50.00 Ry     beta= 0.70
     Davidson diagonalization with overlap
     ethr =  1.05E-03,  avg # of iterations =  1.2

     negative rho (up, down):  1.764E-03 0.000E+00

     total cpu time spent up to now is       13.9 secs

     total energy              =     -22.77106779 Ry
     estimated scf accuracy    <       0.08922624 Ry

     iteration # 11     ecut=    50.00 Ry     beta= 0.70
     Davidson diagonalization with overlap
     ethr =  1.05E-03,  avg # of iterations =  9.5

     negative rho (up, down):  2.077E-04 0.000E+00

     total cpu time spent up to now is       14.2 secs

     total energy              =     -22.76851800 Ry
     estimated scf accuracy    <       0.03996702 Ry

     iteration # 12     ecut=    50.00 Ry     beta= 0.70
     Davidson diagonalization with overlap
     ethr =  5.00E-04,  avg # of iterations =  2.4

     negative rho (up, down):  3.176E-05 0.000E+00

     total cpu time spent up to now is       14.3 secs

     total energy              =     -22.77094470 Ry
     estimated scf accuracy    <       0.00196673 Ry

     iteration # 13     ecut=    50.00 Ry     beta= 0.70
     Davidson diagonalization with overlap
     c_bands:  1 eigenvalues not converged
     c_bands:  1 eigenvalues not converged
     ethr =  2.46E-05,  avg # of iterations =  8.6

     negative rho (up, down):  2.798E-05 0.000E+00

     total cpu time spent up to now is       14.5 secs

     total energy              =     -22.77142078 Ry
     estimated scf accuracy    <       0.00003061 Ry

     iteration # 14     ecut=    50.00 Ry     beta= 0.70
     Davidson diagonalization with overlap
     ethr =  3.83E-07,  avg # of iterations =  5.5

     negative rho (up, down):  1.915E-05 0.000E+00

     total cpu time spent up to now is       14.7 secs

     total energy              =     -22.77142465 Ry
     estimated scf accuracy    <       0.00003290 Ry

     iteration # 15     ecut=    50.00 Ry     beta= 0.70
     Davidson diagonalization with overlap
     ethr =  3.83E-07,  avg # of iterations =  4.3

     negative rho (up, down):  1.861E-06 0.000E+00

     total cpu time spent up to now is       14.9 secs

     total energy              =     -22.77143796 Ry
     estimated scf accuracy    <       0.00001519 Ry

     iteration # 16     ecut=    50.00 Ry     beta= 0.70
     Davidson diagonalization with overlap
     ethr =  1.90E-07,  avg # of iterations =  2.0

     negative rho (up, down):  6.133E-06 0.000E+00

     total cpu time spent up to now is       15.0 secs

     total energy              =     -22.77141544 Ry
     estimated scf accuracy    <       0.00005209 Ry

     iteration # 17     ecut=    50.00 Ry     beta= 0.70
     Davidson diagonalization with overlap
     ethr =  1.90E-07,  avg # of iterations =  2.0

     total cpu time spent up to now is       15.1 secs

     total energy              =     -22.77142170 Ry
     estimated scf accuracy    <       0.00000062 Ry

     iteration # 18     ecut=    50.00 Ry     beta= 0.70
     Davidson diagonalization with overlap
     ethr =  7.69E-09,  avg # of iterations =  1.8

     total cpu time spent up to now is       15.2 secs

     total energy              =     -22.77142179 Ry
     estimated scf accuracy    <       0.00000017 Ry

     iteration # 19     ecut=    50.00 Ry     beta= 0.70
     Davidson diagonalization with overlap
     ethr =  2.18E-09,  avg # of iterations =  2.0

     total cpu time spent up to now is       15.4 secs

     total energy              =     -22.77142179 Ry
     estimated scf accuracy    <       0.00000019 Ry

     iteration # 20     ecut=    50.00 Ry     beta= 0.70
     Davidson diagonalization with overlap
     ethr =  2.18E-09,  avg # of iterations =  1.0

     total cpu time spent up to now is       15.5 secs

     total energy              =     -22.77142179 Ry
     estimated scf accuracy    <       0.00000007 Ry

     iteration # 21     ecut=    50.00 Ry     beta= 0.70
     Davidson diagonalization with overlap
     ethr =  9.28E-10,  avg # of iterations =  1.0

     total cpu time spent up to now is       15.6 secs

     total energy              =     -22.77142176 Ry
     estimated scf accuracy    <       0.00000006 Ry

     iteration # 22     ecut=    50.00 Ry     beta= 0.70
     Davidson diagonalization with overlap
     ethr =  7.03E-10,  avg # of iterations =  2.0

     total cpu time spent up to now is       15.7 secs

     total energy              =     -22.77142177 Ry
     estimated scf accuracy    <          2.5E-10 Ry

     iteration # 23     ecut=    50.00 Ry     beta= 0.70
     Davidson diagonalization with overlap
     ethr =  3.13E-12,  avg # of iterations =  2.9

     total cpu time spent up to now is       15.8 secs

     End of self-consistent calculation

          k = 0.0000 0.0000 0.0000 (  3871 PWs)   bands (ev):

   -24.0405 -12.0526  -7.1316  -7.1316  -0.9924  -0.2116   0.5658   0.9238

          k = 0.0000 0.0721 0.0000 (  3859 PWs)   bands (ev):

   -23.9326 -11.9226  -7.5657  -7.3632  -0.8456  -0.0626   0.7156   1.0731

          k = 0.0000 0.1442 0.0000 (  3849 PWs)   bands (ev):

   -23.6097 -11.5343  -8.7195  -7.9526  -0.4051   0.3840   1.1654   1.5208

          k = 0.0000 0.2163 0.0000 (  3834 PWs)   bands (ev):

   -23.0739 -10.8934 -10.3112  -8.6903   0.3286   1.1261   1.9148   2.2647

          k = 0.0000 0.2884 0.0000 (  3870 PWs)   bands (ev):

   -22.3298 -12.0986 -10.0181  -9.4123   1.3534   2.1378   2.9574   2.9626

          k = 0.0000 0.3605 0.0000 (  3864 PWs)   bands (ev):

   -21.3834 -13.9115 -10.0087  -8.9385   0.9874   2.6627   3.5229   3.9977

          k = 0.0000 0.4326 0.0000 (  3854 PWs)   bands (ev):

   -20.2489 -15.6583 -10.4250  -7.7462  -0.8487   3.7732   4.3098   5.1376

          k = 0.0000 0.5047 0.0000 (  3902 PWs)   bands (ev):

   -18.9987 -17.2331 -10.6444  -6.7457  -2.1943   3.6934   6.1524   7.0274

          k = 0.0624 0.1081 0.0000 (  3843 PWs)   bands (ev):

   -23.7172 -11.6623  -8.3057  -7.8292  -0.5519   0.2353   1.0155   1.3717

          k = 0.0624 0.1802 0.0000 (  3842 PWs)   bands (ev):

   -23.2879 -11.1487  -9.5847  -8.5884   0.0355   0.8299   1.6153   1.9679

          k = 0.0624 0.2523 0.0000 (  3853 PWs)   bands (ev):

   -22.6481 -11.2156 -10.3891  -9.3774   0.9155   1.7166   2.5145   2.8547

          k = 0.0624 0.3244 0.0000 (  3867 PWs)   bands (ev):

   -21.8027 -12.9845 -10.0674  -9.4074   1.8669   2.0850   2.9348   3.7107

          k = 0.0624 0.3965 0.0000 (  3875 PWs)   bands (ev):

   -20.7613 -14.7518 -10.5907  -8.2554  -0.0044   3.5314   4.3880   4.3940

          k = 0.0624 0.4686 0.0000 (  3893 PWs)   bands (ev):

   -19.5540 -16.4207 -10.9144  -7.0893  -1.6492   4.2076   5.2984   6.1414

          k = 0.0624 0.5407 0.0000 (  3886 PWs)   bands (ev):

   -18.5267 -17.6053 -11.0220  -6.4699  -2.4327   4.1617   7.2041   7.3590

          k = 0.1249 0.2163 0.0000 (  3829 PWs)   bands (ev):

   -22.7544 -10.7074 -10.5127  -9.5937   0.7697   1.5714   2.3652   2.7118

          k = 0.1249 0.2884 0.0000 (  3852 PWs)   bands (ev):

   -22.0134 -12.1438 -10.5345  -9.6448   1.7953   2.4407   2.6314   3.4145

          k = 0.1249 0.3605 0.0000 (  3867 PWs)   bands (ev):

   -21.0726 -13.7849 -11.2309  -8.5736   0.7050   3.1077   3.9307   4.7609

          k = 0.1249 0.4326 0.0000 (  3878 PWs)   bands (ev):

   -19.9489 -15.4453 -11.6899  -7.3806  -1.0050   4.6933   5.5175   5.5889

          k = 0.1249 0.5047 0.0000 (  3889 PWs)   bands (ev):

   -18.7130 -16.9704 -11.9168  -6.3554  -2.3075   5.4643   6.5677   7.2706

          k = 0.1873 0.3244 0.0000 (  3881 PWs)   bands (ev):

   -21.1770 -13.1722 -11.7633  -8.6828   2.9635   3.7687   4.6133   4.9221

          k = 0.1873 0.3965 0.0000 (  3880 PWs)   bands (ev):

   -20.1502 -14.4932 -12.6070  -7.5445  -0.5478   4.4125   5.1829   6.1087

          k = 0.1873 0.4686 0.0000 (  3890 PWs)   bands (ev):

   -18.9690 -15.9711 -13.0408  -6.3567  -2.0022   6.1200   6.6697   7.2885

          k = 0.1873 0.5407 0.0000 (  3915 PWs)   bands (ev):

   -17.9789 -17.0799 -13.1763  -5.6769  -2.7785   7.2121   7.9427   8.1580

          k = 0.2497 0.4326 0.0000 (  3889 PWs)   bands (ev):

   -19.0621 -15.2732 -13.7890  -6.3724  -1.8437   5.9793   6.4270   7.7475

          k = 0.2497 0.5047 0.0000 (  3911 PWs)   bands (ev):

   -17.8798 -16.3628 -14.3481  -5.2438  -3.0292   6.7850   7.7402   8.9579

          k = 0.3122 0.5407 0.0000 (  3939 PWs)   bands (ev):

   -16.8898 -16.8898 -15.0282  -4.1156  -4.1156   9.0773   9.0773   9.5831

     the Fermi energy is    -4.1156 ev

!    total energy              =     -22.77142177 Ry
     estimated scf accuracy    <          2.1E-11 Ry
     smearing contrib. (-TS)   =      -0.00005015 Ry
     internal energy E=F+TS    =     -22.77137162 Ry

     The total energy is F=E-TS. E is the sum of the following terms:
     one-electron contribution =    -398.49171531 Ry
     hartree contribution      =     199.89515024 Ry
     xc contribution           =      -7.07306010 Ry
     ewald contribution        =     182.89825355 Ry

     convergence has been achieved in  23 iterations

     Forces acting on atoms (cartesian axes, Ry/au):

     atom    1 type  1   force =    -0.00000000   -0.00000000    0.00000000
     atom    2 type  1   force =     0.00000000    0.00000000    0.00000000

     Total force =     0.000000     Total SCF correction =     0.000000


     Computing stress (Cartesian axis) and pressure

          total   stress  (Ry/bohr**3)                   (kbar)     P=       -5.61
   0.00001091   0.00000000   0.00000000            1.61        0.00        0.00
   0.00000000   0.00001091   0.00000000            0.00        1.61        0.00
   0.00000000   0.00000000  -0.00013620            0.00        0.00      -20.04

     Energy error            =      4.7E-04
     Gradient error          =      1.6E-26
     Cell gradient error     =      1.1E-05


     number of scf cycles    =   4
     number of bfgs steps    =   3

     enthalpy old            =     -22.7709471901 Ry
     enthalpy new            =     -22.7714217732 Ry

     CASE: enthalpy_new < enthalpy_old

     new trust radius        =       0.0037824609 bohr
     new conv_thr            =            1.0E-10 Ry

     new unit-cell volume =    740.43180 a.u.^3 (   109.72067 Ang^3 )
     density =      0.36355 g/cm^3

CELL_PARAMETERS (alat=  4.30000000)
   1.068516539  -0.000000000   0.000000000
  -0.534258270   0.925362467   0.000000000
   0.000000000   0.000000000   9.418604651

ATOMIC_POSITIONS (crystal)
C             0.3333333333        0.6666666667        0.5000000000
C             0.6666666667        0.3333333333        0.5000000000



     Writing output data file ./work/LiC430.save/
     NEW-OLD atomic charge density approx. for the potential
     extrapolated charge    8.01110, renormalised to    8.00000

     total cpu time spent up to now is       15.9 secs

     Self-consistent Calculation

     iteration #  1     ecut=    50.00 Ry     beta= 0.70
     Davidson diagonalization with overlap
     c_bands:  1 eigenvalues not converged
     c_bands:  1 eigenvalues not converged
     c_bands:  1 eigenvalues not converged
     c_bands:  1 eigenvalues not converged
     ethr =  1.00E-06,  avg # of iterations = 10.5

     total cpu time spent up to now is       16.2 secs

     total energy              =     -22.77135220 Ry
     estimated scf accuracy    <       0.00003870 Ry

     iteration #  2     ecut=    50.00 Ry     beta= 0.70
     Davidson diagonalization with overlap
     c_bands:  1 eigenvalues not converged
     c_bands:  1 eigenvalues not converged
     c_bands:  1 eigenvalues not converged
     ethr =  4.84E-07,  avg # of iterations = 10.4

     total cpu time spent up to now is       16.4 secs

     total energy              =     -22.77142979 Ry
     estimated scf accuracy    <       0.00003629 Ry

     iteration #  3     ecut=    50.00 Ry     beta= 0.70
     Davidson diagonalization with overlap
     ethr =  4.54E-07,  avg # of iterations =  1.1

     total cpu time spent up to now is       16.5 secs

     total energy              =     -22.77142764 Ry
     estimated scf accuracy    <       0.00000831 Ry

     iteration #  4     ecut=    50.00 Ry     beta= 0.70
     Davidson diagonalization with overlap
     ethr =  1.04E-07,  avg # of iterations =  1.4

     total cpu time spent up to now is       16.6 secs

     total energy              =     -22.77142817 Ry
     estimated scf accuracy    <       0.00000145 Ry

     iteration #  5     ecut=    50.00 Ry     beta= 0.70
     Davidson diagonalization with overlap
     ethr =  1.81E-08,  avg # of iterations =  1.0

     total cpu time spent up to now is       16.7 secs

     total energy              =     -22.77142807 Ry
     estimated scf accuracy    <       0.00000148 Ry

     iteration #  6     ecut=    50.00 Ry     beta= 0.70
     Davidson diagonalization with overlap
     ethr =  1.81E-08,  avg # of iterations =  1.0

     total cpu time spent up to now is       16.9 secs

     total energy              =     -22.77142731 Ry
     estimated scf accuracy    <       0.00000121 Ry

     iteration #  7     ecut=    50.00 Ry     beta= 0.70
     Davidson diagonalization with overlap
     ethr =  1.51E-08,  avg # of iterations =  2.0

     total cpu time spent up to now is       17.0 secs

     total energy              =     -22.77142750 Ry
     estimated scf accuracy    <       0.00000006 Ry

     iteration #  8     ecut=    50.00 Ry     beta= 0.70
     Davidson diagonalization with overlap
     ethr =  7.08E-10,  avg # of iterations =  1.4

     total cpu time spent up to now is       17.1 secs

     total energy              =     -22.77142750 Ry
     estimated scf accuracy    <          1.9E-09 Ry

     iteration #  9     ecut=    50.00 Ry     beta= 0.70
     Davidson diagonalization with overlap
     ethr =  2.41E-11,  avg # of iterations =  2.4

     total cpu time spent up to now is       17.2 secs

     End of self-consistent calculation

          k = 0.0000 0.0000 0.0000 (  3871 PWs)   bands (ev):

   -24.0299 -12.0444  -7.1382  -7.1382  -0.9921  -0.2117   0.5660   0.9240

          k = 0.0000 0.0720 0.0000 (  3859 PWs)   bands (ev):

   -23.9222 -11.9146  -7.5720  -7.3692  -0.8455  -0.0630   0.7157   1.0731

          k = 0.0000 0.1441 0.0000 (  3849 PWs)   bands (ev):

   -23.5997 -11.5269  -8.7249  -7.9575  -0.4057   0.3830   1.1648   1.5202

          k = 0.0000 0.2161 0.0000 (  3834 PWs)   bands (ev):

   -23.0645 -10.8872 -10.3151  -8.6937   0.3270   1.1241   1.9132   2.2630

          k = 0.0000 0.2882 0.0000 (  3870 PWs)   bands (ev):

   -22.3213 -12.1006 -10.0133  -9.4145   1.3505   2.1338   2.9407   2.9594

          k = 0.0000 0.3602 0.0000 (  3864 PWs)   bands (ev):

   -21.3761 -13.9115 -10.0098  -8.9357   0.9729   2.6579   3.5172   3.9728

          k = 0.0000 0.4323 0.0000 (  3854 PWs)   bands (ev):

   -20.2432 -15.6561 -10.4253  -7.7457  -0.8593   3.7477   4.3012   5.1297

          k = 0.0000 0.5043 0.0000 (  3902 PWs)   bands (ev):

   -18.9956 -17.2279 -10.6444  -6.7473  -2.2018   3.6660   6.1426   7.0165

          k = 0.0624 0.1081 0.0000 (  3843 PWs)   bands (ev):

   -23.7070 -11.6547  -8.3115  -7.8343  -0.5522   0.2345   1.0151   1.3713

          k = 0.0624 0.1801 0.0000 (  3842 PWs)   bands (ev):

   -23.2782 -11.1420  -9.5894  -8.5921   0.0344   0.8283   1.6140   1.9666

          k = 0.0624 0.2522 0.0000 (  3853 PWs)   bands (ev):

   -22.6392 -11.2187 -10.3837  -9.3797   0.9132   1.7137   2.5121   2.8524

          k = 0.0624 0.3242 0.0000 (  3867 PWs)   bands (ev):

   -21.7948 -12.9857 -10.0686  -9.4037   1.8505   2.0810   2.9297   3.7064

          k = 0.0624 0.3962 0.0000 (  3875 PWs)   bands (ev):

   -20.7547 -14.7508 -10.5910  -8.2538  -0.0171   3.5251   4.3613   4.3872

          k = 0.0624 0.4683 0.0000 (  3893 PWs)   bands (ev):

   -19.5494 -16.4174 -10.9143  -7.0901  -1.6582   4.1803   5.2896   6.1319

          k = 0.0624 0.5403 0.0000 (  3886 PWs)   bands (ev):

   -18.5259 -17.5979 -11.0216  -6.4721  -2.4399   4.1339   7.1926   7.3476

          k = 0.1248 0.2161 0.0000 (  3829 PWs)   bands (ev):

   -22.7454 -10.7115 -10.5071  -9.5954   0.7676   1.5688   2.3629   2.7095

          k = 0.1248 0.2882 0.0000 (  3852 PWs)   bands (ev):

   -22.0053 -12.1465 -10.5348  -9.6407   1.7917   2.4242   2.6252   3.4108

          k = 0.1248 0.3602 0.0000 (  3867 PWs)   bands (ev):

   -21.0656 -13.7855 -11.2304  -8.5714   0.6903   3.1023   3.9245   4.7553

          k = 0.1248 0.4323 0.0000 (  3878 PWs)   bands (ev):

   -19.9435 -15.4436 -11.6889  -7.3806  -1.0160   4.6855   5.5089   5.5609

          k = 0.1248 0.5043 0.0000 (  3889 PWs)   bands (ev):

   -18.7102 -16.9658 -11.9156  -6.3576  -2.3155   5.4357   6.5572   7.2589

          k = 0.1872 0.3242 0.0000 (  3881 PWs)   bands (ev):

   -21.1699 -13.1747 -11.7613  -8.6804   0.9802   2.9583   3.7628   4.6080

          k = 0.1872 0.3962 0.0000 (  3880 PWs)   bands (ev):

   -20.1444 -14.4940 -12.6041  -7.5442  -0.5604   4.4053   5.1748   6.1012

          k = 0.1872 0.4683 0.0000 (  3890 PWs)   bands (ev):

   -18.9652 -15.9692 -13.0378  -6.3587  -2.0117   6.1102   6.6590   7.2589

          k = 0.1872 0.5403 0.0000 (  3915 PWs)   bands (ev):

   -17.9784 -17.0744 -13.1733  -5.6804  -2.7862   7.1822   7.3306   7.9297

          k = 0.2496 0.4323 0.0000 (  3889 PWs)   bands (ev):

   -19.0580 -15.2744 -13.7832  -6.3743  -1.8539   5.9698   6.4168   7.7376

          k = 0.2496 0.5043 0.0000 (  3911 PWs)   bands (ev):

   -17.8780 -16.3617 -14.3418  -5.2479  -3.0372   6.7747   7.7276   8.9292

          k = 0.3120 0.5403 0.0000 (  3939 PWs)   bands (ev):

   -16.8900 -16.8900 -15.0185  -4.1217  -4.1217   6.5636   9.0580   9.0580

     the Fermi energy is    -4.1217 ev

!    total energy              =     -22.77142750 Ry
     estimated scf accuracy    <          7.9E-11 Ry
     smearing contrib. (-TS)   =      -0.00005015 Ry
     internal energy E=F+TS    =     -22.77137735 Ry

     The total energy is F=E-TS. E is the sum of the following terms:
     one-electron contribution =    -397.93087860 Ry
     hartree contribution      =     199.61325707 Ry
     xc contribution           =      -7.06999816 Ry
     ewald contribution        =     182.61624234 Ry

     convergence has been achieved in   9 iterations

     Forces acting on atoms (cartesian axes, Ry/au):

     atom    1 type  1   force =     0.00000000    0.00000000    0.00000000
     atom    2 type  1   force =    -0.00000000   -0.00000000    0.00000000

     Total force =     0.000000     Total SCF correction =     0.000000


     Computing stress (Cartesian axis) and pressure

          total   stress  (Ry/bohr**3)                   (kbar)     P=       -6.66
   0.00000025   0.00000000   0.00000000            0.04        0.00        0.00
   0.00000000   0.00000025  -0.00000000            0.00        0.04       -0.00
  -0.00000000   0.00000000  -0.00013624           -0.00        0.00      -20.04

     Energy error            =      5.7E-06
     Gradient error          =      1.6E-26
     Cell gradient error     =      2.5E-07


     number of scf cycles    =   5
     number of bfgs steps    =   4

     enthalpy old            =     -22.7714217732 Ry
     enthalpy new            =     -22.7714275045 Ry

     CASE: enthalpy_new < enthalpy_old

     small trust_radius: resetting bfgs history

     new trust radius        =       0.0000340959 bohr
     new conv_thr            =            1.0E-10 Ry

     new unit-cell volume =    740.44108 a.u.^3 (   109.72205 Ang^3 )
     density =      0.36354 g/cm^3

CELL_PARAMETERS (alat=  4.30000000)
   1.068523234  -0.000000000   0.000000000
  -0.534261617   0.925368265   0.000000000
   0.000000000   0.000000000   9.418604651

ATOMIC_POSITIONS (crystal)
C             0.3333333333        0.6666666667        0.5000000000
C             0.6666666667        0.3333333333        0.5000000000



     Writing output data file ./work/LiC430.save/
     NEW-OLD atomic charge density approx. for the potential
     extrapolated charge    8.00010, renormalised to    8.00000

     total cpu time spent up to now is       17.3 secs

     Self-consistent Calculation

     iteration #  1     ecut=    50.00 Ry     beta= 0.70
     Davidson diagonalization with overlap
     ethr =  1.00E-06,  avg # of iterations =  1.0

     Threshold (ethr) on eigenvalues was too large:
     Diagonalizing with lowered threshold

     Davidson diagonalization with overlap
     ethr =  3.14E-11,  avg # of iterations =  1.7

     total cpu time spent up to now is       17.5 secs

     total energy              =     -22.77142750 Ry
     estimated scf accuracy    <          2.8E-09 Ry

     iteration #  2     ecut=    50.00 Ry     beta= 0.70
     Davidson diagonalization with overlap
     ethr =  3.53E-11,  avg # of iterations =  3.0

     total cpu time spent up to now is       17.6 secs

     total energy              =     -22.77142751 Ry
     estimated scf accuracy    <          2.8E-09 Ry

     iteration #  3     ecut=    50.00 Ry     beta= 0.70
     Davidson diagonalization with overlap
     ethr =  3.53E-11,  avg # of iterations =  1.0

     total cpu time spent up to now is       17.7 secs

     total energy              =     -22.77142751 Ry
     estimated scf accuracy    <          6.9E-10 Ry

     iteration #  4     ecut=    50.00 Ry     beta= 0.70
     Davidson diagonalization with overlap
     ethr =  8.57E-12,  avg # of iterations =  1.8

     total cpu time spent up to now is       17.9 secs

     total energy              =     -22.77142751 Ry
     estimated scf accuracy    <          1.1E-10 Ry

     iteration #  5     ecut=    50.00 Ry     beta= 0.70
     Davidson diagonalization with overlap
     ethr =  1.35E-12,  avg # of iterations =  1.0

     total cpu time spent up to now is       18.0 secs

     total energy              =     -22.77142751 Ry
     estimated scf accuracy    <          1.2E-10 Ry

     iteration #  6     ecut=    50.00 Ry     beta= 0.70
     Davidson diagonalization with overlap
     ethr =  1.35E-12,  avg # of iterations =  2.0

     total cpu time spent up to now is       18.1 secs

     End of self-consistent calculation

          k = 0.0000 0.0000 0.0000 (  3871 PWs)   bands (ev):

   -24.0300 -12.0444  -7.1384  -7.1384  -0.9921  -0.2117   0.5660   0.9240

          k = 0.0000 0.0720 0.0000 (  3859 PWs)   bands (ev):

   -23.9222 -11.9146  -7.5722  -7.3694  -0.8455  -0.0629   0.7156   1.0731

          k = 0.0000 0.1441 0.0000 (  3849 PWs)   bands (ev):

   -23.5997 -11.5269  -8.7250  -7.9576  -0.4057   0.3830   1.1647   1.5201

          k = 0.0000 0.2161 0.0000 (  3834 PWs)   bands (ev):

   -23.0645 -10.8872 -10.3152  -8.6939   0.3270   1.1241   1.9131   2.2630

          k = 0.0000 0.2882 0.0000 (  3870 PWs)   bands (ev):

   -22.3214 -12.1007 -10.0134  -9.4146   1.3505   2.1338   2.9404   2.9593

          k = 0.0000 0.3602 0.0000 (  3864 PWs)   bands (ev):

   -21.3762 -13.9116 -10.0099  -8.9358   0.9726   2.6578   3.5172   3.9723

          k = 0.0000 0.4323 0.0000 (  3854 PWs)   bands (ev):

   -20.2432 -15.6562 -10.4254  -7.7457  -0.8594   3.7473   4.3011   5.1296

          k = 0.0000 0.5043 0.0000 (  3902 PWs)   bands (ev):

   -18.9957 -17.2279 -10.6445  -6.7474  -2.2020   3.6656   6.1425   7.0165

          k = 0.0624 0.1081 0.0000 (  3843 PWs)   bands (ev):

   -23.7070 -11.6548  -8.3116  -7.8344  -0.5522   0.2346   1.0151   1.3713

          k = 0.0624 0.1801 0.0000 (  3842 PWs)   bands (ev):

   -23.2782 -11.1420  -9.5896  -8.5922   0.0344   0.8283   1.6140   1.9666

          k = 0.0624 0.2522 0.0000 (  3853 PWs)   bands (ev):

   -22.6392 -11.2188 -10.3837  -9.3798   0.9132   1.7137   2.5120   2.8522

          k = 0.0624 0.3242 0.0000 (  3867 PWs)   bands (ev):

   -21.7949 -12.9858 -10.0687  -9.4037   1.8503   2.0810   2.9297   3.7063

          k = 0.0624 0.3962 0.0000 (  3875 PWs)   bands (ev):

   -20.7548 -14.7509 -10.5911  -8.2539  -0.0173   3.5251   4.3610   4.3871

          k = 0.0624 0.4683 0.0000 (  3893 PWs)   bands (ev):

   -19.5495 -16.4174 -10.9144  -7.0902  -1.6584   4.1799   5.2895   6.1319

          k = 0.0624 0.5403 0.0000 (  3886 PWs)   bands (ev):

   -18.5260 -17.5980 -11.0217  -6.4722  -2.4401   4.1335   7.1925   7.3475

          k = 0.1248 0.2161 0.0000 (  3829 PWs)   bands (ev):

   -22.7454 -10.7117 -10.5072  -9.5955   0.7676   1.5688   2.3629   2.7095

          k = 0.1248 0.2882 0.0000 (  3852 PWs)   bands (ev):

   -22.0054 -12.1466 -10.5349  -9.6408   1.7917   2.4239   2.6252   3.4107

          k = 0.1248 0.3602 0.0000 (  3867 PWs)   bands (ev):

   -21.0657 -13.7857 -11.2305  -8.5715   0.6901   3.1022   3.9245   4.7551

          k = 0.1248 0.4323 0.0000 (  3878 PWs)   bands (ev):

   -19.9436 -15.4437 -11.6890  -7.3807  -1.0162   4.6855   5.5089   5.5605

          k = 0.1248 0.5043 0.0000 (  3889 PWs)   bands (ev):

   -18.7103 -16.9659 -11.9157  -6.3577  -2.3157   5.4353   6.5571   7.2588

          k = 0.1872 0.3242 0.0000 (  3881 PWs)   bands (ev):

   -21.1699 -13.1748 -11.7614  -8.6805   0.9799   2.9583   3.7628   4.6079

          k = 0.1872 0.3962 0.0000 (  3880 PWs)   bands (ev):

   -20.1445 -14.4941 -12.6041  -7.5443  -0.5606   4.4052   5.1748   6.1011

          k = 0.1872 0.4683 0.0000 (  3890 PWs)   bands (ev):

   -18.9652 -15.9693 -13.0379  -6.3589  -2.0119   6.1101   6.6589   7.2586

          k = 0.1872 0.5403 0.0000 (  3915 PWs)   bands (ev):

   -17.9785 -17.0744 -13.1734  -5.6805  -2.7864   7.1818   7.3304   7.9296

          k = 0.2496 0.4323 0.0000 (  3889 PWs)   bands (ev):

   -19.0580 -15.2745 -13.7833  -6.3744  -1.8541   5.9697   6.4167   7.7375

          k = 0.2496 0.5043 0.0000 (  3911 PWs)   bands (ev):

   -17.8781 -16.3618 -14.3418  -5.2480  -3.0374   6.7745   7.7274   8.9288

          k = 0.3120 0.5403 0.0000 (  3939 PWs)   bands (ev):

   -16.8901 -16.8901 -15.0185  -4.1219  -4.1219   6.5634   9.0578   9.0578

     the Fermi energy is    -4.1219 ev

!    total energy              =     -22.77142751 Ry
     estimated scf accuracy    <          4.5E-13 Ry
     smearing contrib. (-TS)   =      -0.00005015 Ry
     internal energy E=F+TS    =     -22.77137736 Ry

     The total energy is F=E-TS. E is the sum of the following terms:
     one-electron contribution =    -397.92584919 Ry
     hartree contribution      =     199.61074084 Ry
     xc contribution           =      -7.06997200 Ry
     ewald contribution        =     182.61370300 Ry

     convergence has been achieved in   6 iterations

     Forces acting on atoms (cartesian axes, Ry/au):

     atom    1 type  1   force =     0.00000000    0.00000000    0.00000000
     atom    2 type  1   force =     0.00000000    0.00000000    0.00000000

     Total force =     0.000000     Total SCF correction =     0.000000


     Computing stress (Cartesian axis) and pressure

          total   stress  (Ry/bohr**3)                   (kbar)     P=       -6.67
   0.00000015   0.00000000   0.00000000            0.02        0.00        0.00
   0.00000000   0.00000015   0.00000000            0.00        0.02        0.00
   0.00000000   0.00000000  -0.00013622            0.00        0.00      -20.04

     Energy error            =      1.9E-09
     Gradient error          =      0.0E+00
     Cell gradient error     =      1.5E-07


     number of scf cycles    =   6
     number of bfgs steps    =   5

     enthalpy old            =     -22.7714275045 Ry
     enthalpy new            =     -22.7714275063 Ry

     CASE: enthalpy_new < enthalpy_old

     Message from routine bfgs:
     history already reset at previous step: stopping
     small trust_radius: resetting bfgs history

     new trust radius        =       0.0000198967 bohr
     new conv_thr            =            1.0E-10 Ry

     new unit-cell volume =    740.44649 a.u.^3 (   109.72285 Ang^3 )
     density =      0.36354 g/cm^3

CELL_PARAMETERS (alat=  4.30000000)
   1.068527140  -0.000000000   0.000000000
  -0.534263570   0.925371648   0.000000000
   0.000000000   0.000000000   9.418604651

ATOMIC_POSITIONS (crystal)
C             0.3333333333        0.6666666667        0.5000000000
C             0.6666666667        0.3333333333        0.5000000000



     Writing output data file ./work/LiC430.save/
     NEW-OLD atomic charge density approx. for the potential
     extrapolated charge    8.00006, renormalised to    8.00000

     total cpu time spent up to now is       18.1 secs

     Self-consistent Calculation

     iteration #  1     ecut=    50.00 Ry     beta= 0.70
     Davidson diagonalization with overlap
     ethr =  1.00E-06,  avg # of iterations =  1.0

     Threshold (ethr) on eigenvalues was too large:
     Diagonalizing with lowered threshold

     Davidson diagonalization with overlap
     ethr =  1.16E-11,  avg # of iterations =  1.8

     total cpu time spent up to now is       18.4 secs

     total energy              =     -22.77142750 Ry
     estimated scf accuracy    <          1.1E-09 Ry

     iteration #  2     ecut=    50.00 Ry     beta= 0.70
     Davidson diagonalization with overlap
     ethr =  1.31E-11,  avg # of iterations =  3.0

     total cpu time spent up to now is       18.5 secs

     total energy              =     -22.77142751 Ry
     estimated scf accuracy    <          9.8E-10 Ry

     iteration #  3     ecut=    50.00 Ry     beta= 0.70
     Davidson diagonalization with overlap
     ethr =  1.22E-11,  avg # of iterations =  1.0

     total cpu time spent up to now is       18.6 secs

     total energy              =     -22.77142751 Ry
     estimated scf accuracy    <          2.3E-10 Ry

     iteration #  4     ecut=    50.00 Ry     beta= 0.70
     Davidson diagonalization with overlap
     ethr =  2.84E-12,  avg # of iterations =  1.9

     total cpu time spent up to now is       18.7 secs

     End of self-consistent calculation

[...]

          k = 0.1248 0.5043 0.0000 (  3889 PWs)   bands (ev):

   -18.7103 -16.9659 -11.9158  -6.3578  -2.3158   5.4351   6.5570   7.2587

          k = 0.1872 0.3242 0.0000 (  3881 PWs)   bands (ev):

   -21.1700 -13.1749 -11.7615  -8.6806   0.9798   2.9582   3.7627   4.6079

          k = 0.1872 0.3962 0.0000 (  3880 PWs)   bands (ev):

   -20.1445 -14.4942 -12.6042  -7.5444  -0.5607   4.4051   5.1747   6.1010

          k = 0.1872 0.4683 0.0000 (  3890 PWs)   bands (ev):

   -18.9653 -15.9694 -13.0380  -6.3589  -2.0120   6.1100   6.6588   7.2583

          k = 0.1872 0.5403 0.0000 (  3915 PWs)   bands (ev):

   -17.9786 -17.0745 -13.1735  -5.6806  -2.7865   7.1816   7.3303   7.9295

          k = 0.2496 0.4323 0.0000 (  3889 PWs)   bands (ev):

   -19.0581 -15.2746 -13.7833  -6.3745  -1.8542   5.9696   6.4166   7.7374

          k = 0.2496 0.5043 0.0000 (  3911 PWs)   bands (ev):

   -17.8781 -16.3619 -14.3419  -5.2481  -3.0375   6.7744   7.7273   8.9285

          k = 0.3120 0.5403 0.0000 (  3939 PWs)   bands (ev):

   -16.8902 -16.8902 -15.0186  -4.1220  -4.1220   6.5633   9.0576   9.0576

     the Fermi energy is    -4.1220 ev

!    total energy              =     -22.77142751 Ry
     estimated scf accuracy    <          3.3E-11 Ry
     smearing contrib. (-TS)   =      -0.00005015 Ry
     internal energy E=F+TS    =     -22.77137736 Ry

     The total energy is F=E-TS. E is the sum of the following terms:
     one-electron contribution =    -397.92292372 Ry
     hartree contribution      =     199.60928350 Ry
     xc contribution           =      -7.06995831 Ry
     ewald contribution        =     182.61222118 Ry

     convergence has been achieved in   4 iterations

     Forces acting on atoms (cartesian axes, Ry/au):

     atom    1 type  1   force =    -0.00000000   -0.00000000    0.00000000
     atom    2 type  1   force =     0.00000000    0.00000000    0.00000000

     Total force =     0.000000     Total SCF correction =     0.000000


     Computing stress (Cartesian axis) and pressure

          total   stress  (Ry/bohr**3)                   (kbar)     P=       -6.67
   0.00000009   0.00000000   0.00000000            0.01        0.00        0.00
   0.00000000   0.00000009   0.00000000            0.00        0.01        0.00
  -0.00000000  -0.00000000  -0.00013619           -0.00       -0.00      -20.03

     Message from routine bfgs:
     history already reset at previous step: stopping
     Energy error            =      6.4E-10
     Gradient error          =      1.6E-26
     Cell gradient error     =      8.7E-08


     bfgs converged in   7 scf cycles and   6 bfgs steps
     (criteria: energy <  1.0E-04 Ry, force <  1.0E-08Ry/Bohr, cell <  1.0E-03kbar)

     End of BFGS Geometry Optimization

     Final enthalpy =     -22.7714275070 Ry

     File ./work/LiC430.bfgs deleted, as requested
Begin final coordinates
     new unit-cell volume =    740.44649 a.u.^3 (   109.72285 Ang^3 )
     density =      0.36354 g/cm^3

CELL_PARAMETERS (alat=  4.30000000)
   1.068527140  -0.000000000   0.000000000
  -0.534263570   0.925371648   0.000000000
   0.000000000   0.000000000   9.418604651

ATOMIC_POSITIONS (crystal)
C             0.3333333333        0.6666666667        0.5000000000
C             0.6666666667        0.3333333333        0.5000000000
End final coordinates



     Writing output data file ./work/LiC430.save/

     Final scf calculation at the relaxed structure.
     The G-vectors are recalculated for the final unit cell
     Results may differ from those at the preceding step.
 
     Parallelization info
     --------------------
     sticks:   dense  smooth     PW     G-vecs:    dense   smooth      PW
     Min           9       9      2                 1103     1103     170
     Max          10      10      3                 1126     1126     215
     Sum         295     295     91                35457    35457    6349
 


     bravais-lattice index     =            4
     lattice parameter (alat)  =       4.3000  a.u.
     unit-cell volume          =     740.4465 (a.u.)^3
     number of atoms/cell      =            2
     number of atomic types    =            1
     number of electrons       =         8.00
     number of Kohn-Sham states=            8
     kinetic-energy cutoff     =      50.0000  Ry
     charge density cutoff     =     200.0000  Ry
     scf convergence threshold =      1.0E-10
     mixing beta               =       0.7000
     number of iterations used =            8  plain     mixing
     press convergence thresh. =      1.0E-03
     Exchange-correlation= PBE
                           (   1   4   3   4   0   0   0)

     celldm(1)=   4.300000  celldm(2)=   0.000000  celldm(3)=   9.418605
     celldm(4)=   0.000000  celldm(5)=   0.000000  celldm(6)=   0.000000

     crystal axes: (cart. coord. in units of alat)
               a(1) = (   1.068527  -0.000000   0.000000 )  
               a(2) = (  -0.534264   0.925372   0.000000 )  
               a(3) = (   0.000000   0.000000   9.418605 )  

     reciprocal axes: (cart. coord. in units 2 pi/alat)
               b(1) = (  0.935868  0.540323  0.000000 )  
               b(2) = (  0.000000  1.080647  0.000000 )  
               b(3) = (  0.000000  0.000000  0.106173 )  


     PseudoPot. # 1 for C  read from file:
     /home/yhkim/qe-6.7/pseudo/ONCV1/1.2/C_ONCV_PBE-1.2.upf
     MD5 check sum: 1a5f83a7b1f58d24996abe00ed223ac6
     Pseudo is Norm-conserving, Zval =  4.0
     Generated using ONCVPSP code by D. R. Hamann
     Using radial grid of  602 points,  4 beta functions with: 
                l(1) =   0
                l(2) =   0
                l(3) =   1
                l(4) =   1

     atomic species   valence    mass     pseudopotential
        C              4.00    12.01070     C ( 1.00)

     24 Sym. Ops., with inversion, found



   Cartesian axes

     site n.     atom                  positions (alat units)
         1           C   tau(   1) = (  -0.0000000   0.6169144   4.7093023  )
         2           C   tau(   2) = (   0.5342636   0.3084572   4.7093023  )

     number of k points=    27  Methfessel-Paxton smearing, width (Ry)=  0.0100
                       cart. coord. in units 2pi/alat
        k(    1) = (   0.0000000   0.0000000   0.0000000), wk =   0.0088889
        k(    2) = (   0.0000000   0.0720431   0.0000000), wk =   0.0533333
        k(    3) = (   0.0000000   0.1440863   0.0000000), wk =   0.0533333
        k(    4) = (   0.0000000   0.2161294   0.0000000), wk =   0.0533333
        k(    5) = (   0.0000000   0.2881725   0.0000000), wk =   0.0533333
        k(    6) = (   0.0000000   0.3602156   0.0000000), wk =   0.0533333
        k(    7) = (   0.0000000   0.4322588   0.0000000), wk =   0.0533333
        k(    8) = (   0.0000000   0.5043019   0.0000000), wk =   0.0533333
        k(    9) = (   0.0623912   0.1080647   0.0000000), wk =   0.0533333
        k(   10) = (   0.0623912   0.1801078   0.0000000), wk =   0.1066667
        k(   11) = (   0.0623912   0.2521509   0.0000000), wk =   0.1066667
        k(   12) = (   0.0623912   0.3241941   0.0000000), wk =   0.1066667
        k(   13) = (   0.0623912   0.3962372   0.0000000), wk =   0.1066667
        k(   14) = (   0.0623912   0.4682803   0.0000000), wk =   0.1066667
        k(   15) = (   0.0623912   0.5403234   0.0000000), wk =   0.0533333
        k(   16) = (   0.1247824   0.2161294   0.0000000), wk =   0.0533333
        k(   17) = (   0.1247824   0.2881725   0.0000000), wk =   0.1066667
        k(   18) = (   0.1247824   0.3602156   0.0000000), wk =   0.1066667
        k(   19) = (   0.1247824   0.4322588   0.0000000), wk =   0.1066667
        k(   20) = (   0.1247824   0.5043019   0.0000000), wk =   0.1066667
        k(   21) = (   0.1871735   0.3241941   0.0000000), wk =   0.0533333
        k(   22) = (   0.1871735   0.3962372   0.0000000), wk =   0.1066667
        k(   23) = (   0.1871735   0.4682803   0.0000000), wk =   0.1066667
        k(   24) = (   0.1871735   0.5403234   0.0000000), wk =   0.0533333
        k(   25) = (   0.2495647   0.4322588   0.0000000), wk =   0.0533333
        k(   26) = (   0.2495647   0.5043019   0.0000000), wk =   0.1066667
        k(   27) = (   0.3119559   0.5403234   0.0000000), wk =   0.0177778

     Dense  grid:    35457 G-vectors     FFT dimensions: (  24,  24, 192)

     Estimated max dynamical RAM per process >       1.94 MB

     Estimated total dynamical RAM >      62.12 MB
 ----2D----2D----2D----2D----2D----2D----2D----2D----2D----2D----2D----2D
  The code is running with the 2D cutoff
  Please refer to:
  Sohier, T., Calandra, M., & Mauri, F. (2017), 
  Density functional perturbation theory for gated two-dimensional heterostructu
 res:
  Theoretical developments and application to flexural phonons in graphene.
  Physical Review B, 96(7), 75448. https://doi.org/10.1103/PhysRevB.96.075448
 ----2D----2D----2D----2D----2D----2D----2D----2D----2D----2D----2D----2D

     Initial potential from superposition of free atoms

     starting charge    7.98607, renormalised to    8.00000

     negative rho (up, down):  1.096E-04 0.000E+00
     Starting wfcs are random

     total cpu time spent up to now is       18.8 secs

     Self-consistent Calculation

     iteration #  1     ecut=    50.00 Ry     beta= 0.70
     Davidson diagonalization with overlap
     c_bands:  5 eigenvalues not converged
     c_bands:  3 eigenvalues not converged
     c_bands:  3 eigenvalues not converged
     c_bands:  5 eigenvalues not converged
     c_bands:  4 eigenvalues not converged
     c_bands:  3 eigenvalues not converged
     c_bands:  3 eigenvalues not converged
     c_bands:  2 eigenvalues not converged
     c_bands:  2 eigenvalues not converged
     c_bands:  3 eigenvalues not converged
     c_bands:  4 eigenvalues not converged
     c_bands:  4 eigenvalues not converged
     c_bands:  3 eigenvalues not converged
     c_bands:  3 eigenvalues not converged
     c_bands:  2 eigenvalues not converged
     c_bands:  4 eigenvalues not converged
     c_bands:  4 eigenvalues not converged
     c_bands:  3 eigenvalues not converged
     c_bands:  3 eigenvalues not converged
     c_bands:  3 eigenvalues not converged
     c_bands:  4 eigenvalues not converged
     c_bands:  3 eigenvalues not converged
     c_bands:  3 eigenvalues not converged
     c_bands:  3 eigenvalues not converged
     c_bands:  3 eigenvalues not converged
     c_bands:  3 eigenvalues not converged
     c_bands:  3 eigenvalues not converged
     ethr =  1.00E-06,  avg # of iterations = 23.0

     negative rho (up, down):  2.174E-05 0.000E+00

     total cpu time spent up to now is       19.6 secs

     total energy              =     -22.75583537 Ry
     estimated scf accuracy    <       0.21408547 Ry

     iteration #  2     ecut=    50.00 Ry     beta= 0.70
     Davidson diagonalization with overlap
     ethr =  2.68E-03,  avg # of iterations =  2.3

     negative rho (up, down):  2.655E-06 0.000E+00

     total cpu time spent up to now is       19.7 secs

     total energy              =     -22.78836323 Ry
     estimated scf accuracy    <       0.00238530 Ry

     iteration #  3     ecut=    50.00 Ry     beta= 0.70
     Davidson diagonalization with overlap
     ethr =  2.98E-05,  avg # of iterations =  9.1

     total cpu time spent up to now is       19.9 secs

     total energy              =     -22.78877952 Ry
     estimated scf accuracy    <       0.00017744 Ry

     iteration #  4     ecut=    50.00 Ry     beta= 0.70
     Davidson diagonalization with overlap
     c_bands:  1 eigenvalues not converged
     ethr =  2.22E-06,  avg # of iterations =  5.1

     total cpu time spent up to now is       20.1 secs

     total energy              =     -22.78879384 Ry
     estimated scf accuracy    <       0.00000125 Ry

     iteration #  5     ecut=    50.00 Ry     beta= 0.70
     Davidson diagonalization with overlap
     ethr =  1.57E-08,  avg # of iterations =  4.3

     total cpu time spent up to now is       20.2 secs

     total energy              =     -22.78879532 Ry
     estimated scf accuracy    <       0.00000004 Ry

     iteration #  6     ecut=    50.00 Ry     beta= 0.70
     Davidson diagonalization with overlap
     ethr =  5.30E-10,  avg # of iterations =  2.6

     total cpu time spent up to now is       20.3 secs

     total energy              =     -22.78879533 Ry
     estimated scf accuracy    <          8.8E-10 Ry

     iteration #  7     ecut=    50.00 Ry     beta= 0.70
     Davidson diagonalization with overlap
     ethr =  1.10E-11,  avg # of iterations =  3.0

     total cpu time spent up to now is       20.5 secs

     End of self-consistent calculation

          k = 0.0000 0.0000 0.0000 (  4399 PWs)   bands (ev):

   -24.0068 -12.0368  -7.1867  -7.1867  -0.9883  -0.2043   0.5816   0.9369

          k = 0.0000 0.0720 0.0000 (  4395 PWs)   bands (ev):

   -23.8992 -11.9072  -7.6154  -7.4173  -0.8417  -0.0556   0.7312   1.0861

          k = 0.0000 0.1441 0.0000 (  4377 PWs)   bands (ev):

   -23.5773 -11.5195  -8.7575  -8.0036  -0.4021   0.3903   1.1803   1.5331

          k = 0.0000 0.2161 0.0000 (  4395 PWs)   bands (ev):

   -23.0437 -10.8797 -10.3379  -8.7373   0.3302   1.1312   1.9286   2.2760

          k = 0.0000 0.2882 0.0000 (  4421 PWs)   bands (ev):

   -22.3022 -12.1096 -10.0057  -9.4504   1.3530   2.1399   2.9344   2.9749

          k = 0.0000 0.3602 0.0000 (  4433 PWs)   bands (ev):

   -21.3601 -13.9153 -10.0432  -8.9308   0.9677   2.6591   3.5237   3.9779

          k = 0.0000 0.4323 0.0000 (  4451 PWs)   bands (ev):

   -20.2316 -15.6573 -10.4615  -7.7411  -0.8610   3.7536   4.3049   5.1355

          k = 0.0000 0.5043 0.0000 (  4445 PWs)   bands (ev):

   -18.9801 -17.2248 -10.6764  -6.7413  -2.2004   3.6789   6.1435   7.0215

          k = 0.0624 0.1081 0.0000 (  4389 PWs)   bands (ev):

   -23.6844 -11.6478  -8.3477  -7.8824  -0.5485   0.2418   1.0306   1.3842

          k = 0.0624 0.1801 0.0000 (  4394 PWs)   bands (ev):

   -23.2569 -11.1346  -9.6169  -8.6346   0.0378   0.8355   1.6295   1.9796

          k = 0.0624 0.2522 0.0000 (  4407 PWs)   bands (ev):

   -22.6194 -11.2326 -10.3768  -9.4183   0.9160   1.7207   2.5276   2.8650

          k = 0.0624 0.3242 0.0000 (  4434 PWs)   bands (ev):

   -21.7776 -12.9917 -10.1016  -9.3974   1.8451   2.0830   2.9363   3.7214

          k = 0.0624 0.3962 0.0000 (  4442 PWs)   bands (ev):

   -20.7413 -14.7511 -10.6214  -8.2483  -0.0188   3.5252   4.3654   4.3934

          k = 0.0624 0.4683 0.0000 (  4445 PWs)   bands (ev):

   -19.5362 -16.4143 -10.9434  -7.0856  -1.6584   4.1872   5.2913   6.1371

          k = 0.0624 0.5403 0.0000 (  4426 PWs)   bands (ev):

   -18.5081 -17.5980 -11.0525  -6.4683  -2.4381   4.1430   7.1929   7.3464

          k = 0.1248 0.2161 0.0000 (  4399 PWs)   bands (ev):

   -22.7255 -10.7313 -10.5008  -9.6339   0.7706   1.5757   2.3783   2.7226

          k = 0.1248 0.2882 0.0000 (  4416 PWs)   bands (ev):

   -21.9876 -12.1544 -10.5675  -9.6350   1.7940   2.4192   2.6304   3.4261

          k = 0.1248 0.3602 0.0000 (  4433 PWs)   bands (ev):

   -21.0513 -13.7862 -11.2584  -8.5661   0.6862   3.1036   3.9307   4.7703

          k = 0.1248 0.4323 0.0000 (  4445 PWs)   bands (ev):

   -19.9322 -15.4417 -11.7137  -7.3768  -1.0177   4.6849   5.5140   5.5565

          k = 0.1248 0.5043 0.0000 (  4431 PWs)   bands (ev):

   -18.6975 -16.9617 -11.9404  -6.3545  -2.3150   5.4333   6.5570   7.2616

          k = 0.1872 0.3242 0.0000 (  4417 PWs)   bands (ev):

   -21.1552 -13.1743 -11.7846  -8.6738   0.9774   2.9599   3.7689   4.6232

          k = 0.1872 0.3962 0.0000 (  4423 PWs)   bands (ev):

   -20.1343 -14.4906 -12.6233  -7.5387  -0.5630   4.4053   5.1798   6.1160

          k = 0.1872 0.4683 0.0000 (  4430 PWs)   bands (ev):

   -18.9549 -15.9656 -13.0526  -6.3555  -2.0138   6.1086   6.6616   7.2455

          k = 0.1872 0.5403 0.0000 (  4419 PWs)   bands (ev):

   -17.9632 -17.0720 -13.1853  -5.6777  -2.7853   7.1708   7.3328   7.9260

          k = 0.2496 0.4323 0.0000 (  4429 PWs)   bands (ev):

   -19.0483 -15.2667 -13.8017  -6.3705  -1.8564   5.9685   6.4195   7.7083

          k = 0.2496 0.5043 0.0000 (  4417 PWs)   bands (ev):

   -17.8672 -16.3539 -14.3546  -5.2460  -3.0377   6.7784   7.7230   8.9080

          k = 0.3120 0.5403 0.0000 (  4395 PWs)   bands (ev):

   -16.8770 -16.8770 -15.0320  -4.1196  -4.1196   6.5683   9.0439   9.0440

     the Fermi energy is    -4.1196 ev

!    total energy              =     -22.78879533 Ry
     estimated scf accuracy    <          1.4E-11 Ry
     smearing contrib. (-TS)   =      -0.00005015 Ry
     internal energy E=F+TS    =     -22.78874518 Ry

     The total energy is F=E-TS. E is the sum of the following terms:
     one-electron contribution =    -397.95506341 Ry
     hartree contribution      =     199.62499310 Ry
     xc contribution           =      -7.07089618 Ry
     ewald contribution        =     182.61222132 Ry

     convergence has been achieved in   7 iterations

     Forces acting on atoms (cartesian axes, Ry/au):

     atom    1 type  1   force =     0.00000000    0.00000000    0.00000000
     atom    2 type  1   force =     0.00000000    0.00000000    0.00000000

     Total force =     0.000000     Total SCF correction =     0.000000


     Computing stress (Cartesian axis) and pressure

          total   stress  (Ry/bohr**3)                   (kbar)     P=        2.68
   0.00008318   0.00000000   0.00000000           12.24        0.00        0.00
   0.00000000   0.00008318   0.00000000            0.00       12.24        0.00
   0.00000000   0.00000000  -0.00011168            0.00        0.00      -16.43


     Writing output data file ./work/LiC430.save/
 
     init_run     :      0.14s CPU      0.16s WALL (       2 calls)
     electrons    :     18.41s CPU     19.95s WALL (       8 calls)
     update_pot   :      0.06s CPU      0.07s WALL (       6 calls)
     forces       :      0.06s CPU      0.07s WALL (       8 calls)
     stress       :      0.16s CPU      0.17s WALL (       8 calls)

     Called by init_run:
     wfcinit      :      0.10s CPU      0.11s WALL (       2 calls)
     potinit      :      0.02s CPU      0.02s WALL (       2 calls)
     hinit0       :      0.01s CPU      0.01s WALL (       2 calls)

     Called by electrons:
     c_bands      :     16.29s CPU     17.56s WALL (     104 calls)
     sum_band     :      1.88s CPU      2.01s WALL (     104 calls)
     v_of_rho     :      0.17s CPU      0.19s WALL (     110 calls)
     mix_rho      :      0.04s CPU      0.04s WALL (     104 calls)

     Called by c_bands:
     init_us_2    :      0.10s CPU      0.11s WALL (    6102 calls)
     cegterg      :     16.00s CPU     17.22s WALL (    2865 calls)

     Called by *egterg:
     cdiaghg      :      1.42s CPU      1.52s WALL (   15636 calls)
     h_psi        :     13.57s CPU     14.62s WALL (   15911 calls)
     g_psi        :      0.03s CPU      0.04s WALL (   12992 calls)

     Called by h_psi:
     h_psi:calbec :      0.45s CPU      0.48s WALL (   15911 calls)
     vloc_psi     :     12.87s CPU     13.86s WALL (   15911 calls)
     add_vuspsi   :      0.12s CPU      0.13s WALL (   15911 calls)

     General routines
     calbec       :      0.46s CPU      0.50s WALL (   16991 calls)
     fft          :      0.16s CPU      0.17s WALL (    1164 calls)
     ffts         :      0.01s CPU      0.01s WALL (     104 calls)
     fftw         :     13.96s CPU     15.02s WALL (  195438 calls)
 
     Parallel routines
     fft_scatt_xy :      0.73s CPU      0.78s WALL (  196706 calls)
     fft_scatt_yz :      5.95s CPU      6.40s WALL (  196706 calls)
 
     PWSCF        :     18.91s CPU     20.74s WALL

 
   This run was terminated on:  14: 9: 9  19Jan2024            

=------------------------------------------------------------------------------=
   JOB DONE.
=------------------------------------------------------------------------------=
