
     Program PWSCF v.6.7MaX starts on 19Jan2024 at 14:20:26 

     This program is part of the open-source Quantum ESPRESSO suite
     for quantum simulation of materials; please cite
         "P. Giannozzi et al., J. Phys.:Condens. Matter 21 395502 (2009);
         "P. Giannozzi et al., J. Phys.:Condens. Matter 29 465901 (2017);
          URL http://www.quantum-espresso.org", 
     in publications or presentations arising from this work. More details at
     http://www.quantum-espresso.org/quote

     Parallel version (MPI), running on    32 processors

     MPI processes distributed on     1 nodes
     R & G space division:  proc/nbgrp/npool/nimage =      32
     Waiting for input...
     Reading input from standard input

     Current dimensions of program PWSCF are:
     Max number of different atomic species (ntypx) = 10
     Max number of k-points (npk) =  40000
     Max angular momentum in pseudopotentials (lmaxx) =  3
     Message from routine read_pp_mesh:
     mesh size missing, using the one in header

     Subspace diagonalization in iterative solution of the eigenvalue problem:
     a serial algorithm will be used

 
     Parallelization info
     --------------------
     sticks:   dense  smooth     PW     G-vecs:    dense   smooth      PW
     Min          10      10      3                 1272     1272     222
     Max          13      13      5                 1293     1293     243
     Sum         349     349    109                40971    40971    7291
 


     bravais-lattice index     =            4
     lattice parameter (alat)  =       4.9500  a.u.
     unit-cell volume          =     859.4014 (a.u.)^3
     number of atoms/cell      =            2
     number of atomic types    =            1
     number of electrons       =         8.00
     number of Kohn-Sham states=            8
     kinetic-energy cutoff     =      50.0000  Ry
     charge density cutoff     =     200.0000  Ry
     scf convergence threshold =      1.0E-08
     mixing beta               =       0.7000
     number of iterations used =            8  plain     mixing
     energy convergence thresh.=      1.0E-04
     force convergence thresh. =      1.0E-08
     press convergence thresh. =      1.0E-03
     Exchange-correlation= PBE
                           (   1   4   3   4   0   0   0)
     nstep                     =           50


     celldm(1)=   4.950000  celldm(2)=   0.000000  celldm(3)=   8.181818
     celldm(4)=   0.000000  celldm(5)=   0.000000  celldm(6)=   0.000000

     crystal axes: (cart. coord. in units of alat)
               a(1) = (   1.000000   0.000000   0.000000 )  
               a(2) = (  -0.500000   0.866025   0.000000 )  
               a(3) = (   0.000000   0.000000   8.181818 )  

     reciprocal axes: (cart. coord. in units 2 pi/alat)
               b(1) = (  1.000000  0.577350  0.000000 )  
               b(2) = (  0.000000  1.154701  0.000000 )  
               b(3) = (  0.000000  0.000000  0.122222 )  


     PseudoPot. # 1 for C  read from file:
     /home/yhkim/qe-6.7/pseudo/ONCV1/1.2/C_ONCV_PBE-1.2.upf
     MD5 check sum: 1a5f83a7b1f58d24996abe00ed223ac6
     Pseudo is Norm-conserving, Zval =  4.0
     Generated using ONCVPSP code by D. R. Hamann
     Using radial grid of  602 points,  4 beta functions with: 
                l(1) =   0
                l(2) =   0
                l(3) =   1
                l(4) =   1

     atomic species   valence    mass     pseudopotential
        C              4.00    12.01070     C ( 1.00)

     24 Sym. Ops., with inversion, found



   Cartesian axes

     site n.     atom                  positions (alat units)
         1           C   tau(   1) = (  -0.0000000   0.5773503   4.0909091  )
         2           C   tau(   2) = (   0.5000000   0.2886751   4.0909091  )

     number of k points=    27  Methfessel-Paxton smearing, width (Ry)=  0.0100
                       cart. coord. in units 2pi/alat
        k(    1) = (   0.0000000   0.0000000   0.0000000), wk =   0.0088889
        k(    2) = (   0.0000000   0.0769800   0.0000000), wk =   0.0533333
        k(    3) = (   0.0000000   0.1539601   0.0000000), wk =   0.0533333
        k(    4) = (   0.0000000   0.2309401   0.0000000), wk =   0.0533333
        k(    5) = (   0.0000000   0.3079201   0.0000000), wk =   0.0533333
        k(    6) = (   0.0000000   0.3849002   0.0000000), wk =   0.0533333
        k(    7) = (   0.0000000   0.4618802   0.0000000), wk =   0.0533333
        k(    8) = (   0.0000000   0.5388603   0.0000000), wk =   0.0533333
        k(    9) = (   0.0666667   0.1154701   0.0000000), wk =   0.0533333
        k(   10) = (   0.0666667   0.1924501   0.0000000), wk =   0.1066667
        k(   11) = (   0.0666667   0.2694301   0.0000000), wk =   0.1066667
        k(   12) = (   0.0666667   0.3464102   0.0000000), wk =   0.1066667
        k(   13) = (   0.0666667   0.4233902   0.0000000), wk =   0.1066667
        k(   14) = (   0.0666667   0.5003702   0.0000000), wk =   0.1066667
        k(   15) = (   0.0666667   0.5773503   0.0000000), wk =   0.0533333
        k(   16) = (   0.1333333   0.2309401   0.0000000), wk =   0.0533333
        k(   17) = (   0.1333333   0.3079201   0.0000000), wk =   0.1066667
        k(   18) = (   0.1333333   0.3849002   0.0000000), wk =   0.1066667
        k(   19) = (   0.1333333   0.4618802   0.0000000), wk =   0.1066667
        k(   20) = (   0.1333333   0.5388603   0.0000000), wk =   0.1066667
        k(   21) = (   0.2000000   0.3464102   0.0000000), wk =   0.0533333
        k(   22) = (   0.2000000   0.4233902   0.0000000), wk =   0.1066667
        k(   23) = (   0.2000000   0.5003702   0.0000000), wk =   0.1066667
        k(   24) = (   0.2000000   0.5773503   0.0000000), wk =   0.0533333
        k(   25) = (   0.2666667   0.4618802   0.0000000), wk =   0.0533333
        k(   26) = (   0.2666667   0.5388603   0.0000000), wk =   0.1066667
        k(   27) = (   0.3333333   0.5773503   0.0000000), wk =   0.0177778

     Dense  grid:    40971 G-vectors     FFT dimensions: (  24,  24, 192)

     Estimated max dynamical RAM per process >       2.10 MB

     Estimated total dynamical RAM >      67.04 MB
 ----2D----2D----2D----2D----2D----2D----2D----2D----2D----2D----2D----2D
  The code is running with the 2D cutoff
  Please refer to:
  Sohier, T., Calandra, M., & Mauri, F. (2017), 
  Density functional perturbation theory for gated two-dimensional heterostructu
 res:
  Theoretical developments and application to flexural phonons in graphene.
  Physical Review B, 96(7), 75448. https://doi.org/10.1103/PhysRevB.96.075448
 ----2D----2D----2D----2D----2D----2D----2D----2D----2D----2D----2D----2D

     Initial potential from superposition of free atoms

     starting charge    7.98607, renormalised to    8.00000

     negative rho (up, down):  1.263E-04 0.000E+00
     Starting wfcs are random

     total cpu time spent up to now is        0.1 secs

     Self-consistent Calculation

     iteration #  1     ecut=    50.00 Ry     beta= 0.70
     Davidson diagonalization with overlap
     ethr =  1.00E-02,  avg # of iterations = 12.2

     negative rho (up, down):  5.582E-08 0.000E+00

     total cpu time spent up to now is        0.6 secs

     total energy              =     -22.73896572 Ry
     estimated scf accuracy    <       0.09464645 Ry

     iteration #  2     ecut=    50.00 Ry     beta= 0.70
     Davidson diagonalization with overlap
     ethr =  1.18E-03,  avg # of iterations =  2.2

     total cpu time spent up to now is        0.7 secs

     total energy              =     -22.75646889 Ry
     estimated scf accuracy    <       0.00200667 Ry

     iteration #  3     ecut=    50.00 Ry     beta= 0.70
     Davidson diagonalization with overlap
     c_bands:  1 eigenvalues not converged
     ethr =  2.51E-05,  avg # of iterations =  9.6

     total cpu time spent up to now is        1.0 secs

     total energy              =     -22.75773077 Ry
     estimated scf accuracy    <       0.00010597 Ry

     iteration #  4     ecut=    50.00 Ry     beta= 0.70
     Davidson diagonalization with overlap
     c_bands:  1 eigenvalues not converged
     ethr =  1.32E-06,  avg # of iterations =  6.9

     total cpu time spent up to now is        1.2 secs

     total energy              =     -22.75777227 Ry
     estimated scf accuracy    <       0.00000154 Ry

     iteration #  5     ecut=    50.00 Ry     beta= 0.70
     Davidson diagonalization with overlap
     c_bands:  1 eigenvalues not converged
     ethr =  1.93E-08,  avg # of iterations =  4.4

     total cpu time spent up to now is        1.4 secs

     total energy              =     -22.75777462 Ry
     estimated scf accuracy    <       0.00000005 Ry

     iteration #  6     ecut=    50.00 Ry     beta= 0.70
     Davidson diagonalization with overlap
     ethr =  5.95E-10,  avg # of iterations =  2.4

     total cpu time spent up to now is        1.5 secs

     End of self-consistent calculation

          k = 0.0000 0.0000 0.0000 (  5215 PWs)   bands (ev):

   -22.8626 -11.2020  -7.8171  -7.8171  -0.9415  -0.1978   0.6025   0.9548

          k = 0.0000 0.0770 0.0000 (  5197 PWs)   bands (ev):

   -22.7686 -11.0940  -8.2201  -7.9997  -0.8148  -0.0702   0.7316   1.0829

          k = 0.0000 0.1540 0.0000 (  5179 PWs)   bands (ev):

   -22.4876 -10.7716  -9.2774  -8.4671  -0.4351   0.3121   1.1185   1.4664

          k = 0.0000 0.2309 0.0000 (  5162 PWs)   bands (ev):

   -22.0220 -10.7040 -10.2419  -9.0572   0.1970   0.9457   1.7615   2.0300

          k = 0.0000 0.3079 0.0000 (  5140 PWs)   bands (ev):

   -21.3766 -12.2791  -9.6381  -9.5200   1.0028   1.0780   1.6616   1.8555

          k = 0.0000 0.3849 0.0000 (  5122 PWs)   bands (ev):

   -20.5612 -13.8668 -10.1238  -8.6370  -0.4996   1.3296   2.2166   2.9844

          k = 0.0000 0.4619 0.0000 (  5102 PWs)   bands (ev):

   -19.6011 -15.3720 -10.4667  -7.6724  -1.9326   1.0952   3.5889   4.3614

          k = 0.0000 0.5389 0.0000 (  5108 PWs)   bands (ev):

   -18.6245 -16.6298 -10.6442  -6.8822  -2.9738   0.9718   5.1873   5.9520

          k = 0.0667 0.1155 0.0000 (  5191 PWs)   bands (ev):

   -22.5812 -10.8786  -8.9097  -8.3671  -0.5616   0.1848   0.9895   1.3387

          k = 0.0667 0.1925 0.0000 (  5173 PWs)   bands (ev):

   -22.2078 -10.4525 -10.0747  -8.9746  -0.0555   0.6935   1.5055   1.8492

          k = 0.0667 0.2694 0.0000 (  5156 PWs)   bands (ev):

   -21.6521 -11.5210  -9.8258  -9.6186   0.7020   1.4269   1.6554   2.2462

          k = 0.0667 0.3464 0.0000 (  5136 PWs)   bands (ev):

   -20.9211 -13.0714 -10.1857  -9.0194   0.1767   1.7008   1.9246   2.4747

          k = 0.0667 0.4234 0.0000 (  5114 PWs)   bands (ev):

   -20.0298 -14.6044 -10.6189  -8.0803  -1.2891   1.6286   2.9660   3.7283

          k = 0.0667 0.5004 0.0000 (  5112 PWs)   bands (ev):

   -19.0287 -16.0106 -10.8883  -7.1468  -2.5721   1.4481   4.4522   5.2055

          k = 0.0667 0.5774 0.0000 (  5080 PWs)   bands (ev):

   -18.3265 -16.8504 -10.9779  -6.6647  -3.1725   1.3860   6.0572   6.2316

          k = 0.1333 0.2309 0.0000 (  5169 PWs)   bands (ev):

   -21.7444 -11.1217  -9.9284  -9.7784   0.5762   1.3274   1.8587   2.1503

          k = 0.1333 0.3079 0.0000 (  5138 PWs)   bands (ev):

   -21.1026 -12.3990 -10.5576  -9.2131   0.5923   1.4580   2.2108   3.0489

          k = 0.1333 0.3849 0.0000 (  5124 PWs)   bands (ev):

   -20.2928 -13.8158 -11.1576  -8.3362  -0.7780   2.5808   2.9163   3.3343

          k = 0.1333 0.4619 0.0000 (  5116 PWs)   bands (ev):

   -19.3410 -15.2311 -11.5572  -7.3712  -2.1160   2.6705   3.9568   4.6733

          k = 0.1333 0.5389 0.0000 (  5096 PWs)   bands (ev):

   -18.3710 -16.4475 -11.7565  -6.5600  -3.1279   2.5482   5.5303   6.1042

          k = 0.2000 0.3464 0.0000 (  5135 PWs)   bands (ev):

   -20.3813 -13.3789 -11.5371  -8.4239  -0.5770   2.4609   3.1988   4.0803

          k = 0.2000 0.4234 0.0000 (  5124 PWs)   bands (ev):

   -19.5050 -14.5280 -12.2606  -7.4966  -1.8053   3.6989   4.3599   4.3900

          k = 0.2000 0.5004 0.0000 (  5097 PWs)   bands (ev):

   -18.5216 -15.7431 -12.6645  -6.5428  -2.9557   4.1584   5.1658   5.6100

          k = 0.2000 0.5774 0.0000 (  5124 PWs)   bands (ev):

   -17.8191 -16.5359 -12.7935  -6.0088  -3.5604   4.0944   6.1558   6.5703

          k = 0.2667 0.4619 0.0000 (  5110 PWs)   bands (ev):

   -18.5847 -15.3132 -13.1661  -6.5483  -2.8640   5.0225   5.4188   5.6843

          k = 0.2667 0.5389 0.0000 (  5126 PWs)   bands (ev):

   -17.6329 -16.2089 -13.6308  -5.6432  -3.8208   5.7060   5.7721   6.4275

          k = 0.3333 0.5774 0.0000 (  5148 PWs)   bands (ev):

   -16.8092 -16.8092 -14.0451  -4.7218  -4.7218   5.6437   6.6357   6.6357

     the Fermi energy is    -4.7218 ev

!    total energy              =     -22.75777464 Ry
     estimated scf accuracy    <          5.1E-10 Ry
     smearing contrib. (-TS)   =      -0.00005015 Ry
     internal energy E=F+TS    =     -22.75772449 Ry

     The total energy is F=E-TS. E is the sum of the following terms:
     one-electron contribution =    -342.34574107 Ry
     hartree contribution      =     171.68523117 Ry
     xc contribution           =      -6.76201212 Ry
     ewald contribution        =     154.66479754 Ry

     convergence has been achieved in   6 iterations

     Forces acting on atoms (cartesian axes, Ry/au):

     atom    1 type  1   force =     0.00000000    0.00000000    0.00000000
     atom    2 type  1   force =     0.00000000    0.00000000    0.00000000

     Total force =     0.000000     Total SCF correction =     0.000000


     Computing stress (Cartesian axis) and pressure

          total   stress  (Ry/bohr**3)                   (kbar)     P=      -72.22
  -0.00069143  -0.00000000  -0.00000000         -101.71       -0.00       -0.00
  -0.00000000  -0.00069143   0.00000000           -0.00     -101.71        0.00
   0.00000000   0.00000000  -0.00009003            0.00        0.00      -13.24


     BFGS Geometry Optimization
     Energy error            =      0.0E+00
     Gradient error          =      0.0E+00
     Cell gradient error     =      6.9E-04


     number of scf cycles    =   1
     number of bfgs steps    =   0

     enthalpy new            =     -22.7577746362 Ry

     new trust radius        =       0.1013478161 bohr
     new conv_thr            =       0.0000000100 Ry

     new unit-cell volume =    829.94751 a.u.^3 (   122.98553 Ang^3 )
     density =      0.32433 g/cm^3

CELL_PARAMETERS (alat=  4.95000000)
   0.982714324  -0.000000000   0.000000000
  -0.491357162   0.851055569   0.000000000
   0.000000000   0.000000000   8.181818182

ATOMIC_POSITIONS (crystal)
C             0.3333333333        0.6666666667        0.5000000000
C             0.6666666667        0.3333333333        0.5000000000



     Writing output data file ./work/LiC495.save/
     NEW-OLD atomic charge density approx. for the potential

     negative rho (up, down):  7.437E-06 0.000E+00
     extrapolated charge    7.71658, renormalised to    8.00000

     total cpu time spent up to now is        1.6 secs

     Self-consistent Calculation

     iteration #  1     ecut=    50.00 Ry     beta= 0.70
     Davidson diagonalization with overlap
     c_bands:  1 eigenvalues not converged
     c_bands:  3 eigenvalues not converged
     c_bands:  3 eigenvalues not converged
     c_bands:  3 eigenvalues not converged
     c_bands:  1 eigenvalues not converged
     c_bands:  2 eigenvalues not converged
     c_bands:  4 eigenvalues not converged
     c_bands:  2 eigenvalues not converged
     c_bands:  2 eigenvalues not converged
     c_bands:  2 eigenvalues not converged
     c_bands:  1 eigenvalues not converged
     c_bands:  1 eigenvalues not converged
     c_bands:  1 eigenvalues not converged
     c_bands:  3 eigenvalues not converged
     c_bands:  2 eigenvalues not converged
     c_bands:  2 eigenvalues not converged
     c_bands:  1 eigenvalues not converged
     c_bands:  1 eigenvalues not converged
     c_bands:  2 eigenvalues not converged
     c_bands:  1 eigenvalues not converged
     ethr =  1.00E-06,  avg # of iterations = 18.7

     negative rho (up, down):  7.944E-07 0.000E+00

     total cpu time spent up to now is        2.1 secs

     total energy              =     -22.74490057 Ry
     estimated scf accuracy    <       0.01684554 Ry

     iteration #  2     ecut=    50.00 Ry     beta= 0.70
     Davidson diagonalization with overlap
     ethr =  2.11E-04,  avg # of iterations = 10.3

     negative rho (up, down):  1.898E-07 0.000E+00

     total cpu time spent up to now is        2.4 secs

     total energy              =     -22.77681104 Ry
     estimated scf accuracy    <       0.01481216 Ry

     iteration #  3     ecut=    50.00 Ry     beta= 0.70
     Davidson diagonalization with overlap
     ethr =  1.85E-04,  avg # of iterations =  1.0

     total cpu time spent up to now is        2.5 secs

     total energy              =     -22.77564235 Ry
     estimated scf accuracy    <       0.00321720 Ry

     iteration #  4     ecut=    50.00 Ry     beta= 0.70
     Davidson diagonalization with overlap
     ethr =  4.02E-05,  avg # of iterations =  3.6

     total cpu time spent up to now is        2.6 secs

     total energy              =     -22.77604651 Ry
     estimated scf accuracy    <       0.00006305 Ry

     iteration #  5     ecut=    50.00 Ry     beta= 0.70
     Davidson diagonalization with overlap
     c_bands:  1 eigenvalues not converged
     ethr =  7.88E-07,  avg # of iterations =  7.8

     total cpu time spent up to now is        2.9 secs

     total energy              =     -22.77606801 Ry
     estimated scf accuracy    <       0.00000713 Ry

     iteration #  6     ecut=    50.00 Ry     beta= 0.70
     Davidson diagonalization with overlap
     ethr =  8.92E-08,  avg # of iterations =  1.7

     total cpu time spent up to now is        3.0 secs

     total energy              =     -22.77606085 Ry
     estimated scf accuracy    <       0.00001455 Ry

     iteration #  7     ecut=    50.00 Ry     beta= 0.70
     Davidson diagonalization with overlap
     ethr =  8.92E-08,  avg # of iterations =  2.0

     total cpu time spent up to now is        3.1 secs

     total energy              =     -22.77606273 Ry
     estimated scf accuracy    <       0.00000097 Ry

     iteration #  8     ecut=    50.00 Ry     beta= 0.70
     Davidson diagonalization with overlap
     ethr =  1.21E-08,  avg # of iterations =  1.0

     total cpu time spent up to now is        3.2 secs

     total energy              =     -22.77606276 Ry
     estimated scf accuracy    <       0.00000066 Ry

     iteration #  9     ecut=    50.00 Ry     beta= 0.70
     Davidson diagonalization with overlap
     ethr =  8.30E-09,  avg # of iterations =  1.9

     total cpu time spent up to now is        3.3 secs

     total energy              =     -22.77606280 Ry
     estimated scf accuracy    <       0.00000002 Ry

     iteration # 10     ecut=    50.00 Ry     beta= 0.70
     Davidson diagonalization with overlap
     ethr =  2.05E-10,  avg # of iterations =  2.7

     total cpu time spent up to now is        3.5 secs

     End of self-consistent calculation

          k = 0.0000 0.0000 0.0000 (  5215 PWs)   bands (ev):

   -23.1248 -11.3878  -7.6965  -7.6965  -0.9523  -0.1979   0.6012   0.9538

          k = 0.0000 0.0783 0.0000 (  5197 PWs)   bands (ev):

   -23.0278 -11.2749  -8.1033  -7.8895  -0.8213  -0.0656   0.7348   1.0865

          k = 0.0000 0.1567 0.0000 (  5179 PWs)   bands (ev):

   -22.7375 -10.9380  -9.1766  -8.3827  -0.4283   0.3307   1.1354   1.4840

          k = 0.0000 0.2350 0.0000 (  5162 PWs)   bands (ev):

   -22.2563 -10.6338 -10.3843  -9.0035   0.2259   0.9882   1.8026   2.1423

          k = 0.0000 0.3133 0.0000 (  5140 PWs)   bands (ev):

   -21.5889 -12.2503  -9.6288  -9.6130   1.1384   1.4071   1.9466   2.2392

          k = 0.0000 0.3917 0.0000 (  5122 PWs)   bands (ev):

   -20.7444 -13.8858 -10.1219  -8.7034  -0.1752   1.9114   2.3268   3.1044

          k = 0.0000 0.4700 0.0000 (  5102 PWs)   bands (ev):

   -19.7453 -15.4443 -10.4808  -7.6895  -1.6947   1.6907   3.7404   4.5340

          k = 0.0000 0.5483 0.0000 (  5108 PWs)   bands (ev):

   -18.7076 -16.7708 -10.6665  -6.8541  -2.8003   1.5702   5.3974   6.1906

          k = 0.0678 0.1175 0.0000 (  5191 PWs)   bands (ev):

   -22.8341 -11.0499  -8.8003  -8.2776  -0.5592   0.1987   1.0019   1.3516

          k = 0.0678 0.1958 0.0000 (  5173 PWs)   bands (ev):

   -22.4484 -10.6045  -9.9852  -8.9169  -0.0355   0.7263   1.5361   1.8809

          k = 0.0678 0.2742 0.0000 (  5156 PWs)   bands (ev):

   -21.8740 -11.4663  -9.9490  -9.5913   0.7487   1.5053   2.0988   2.3355

          k = 0.0678 0.3525 0.0000 (  5136 PWs)   bands (ev):

   -21.1176 -13.0616 -10.1836  -9.1045   0.5459   1.7880   2.5161   2.5759

          k = 0.0678 0.4308 0.0000 (  5114 PWs)   bands (ev):

   -20.1929 -14.6449 -10.6355  -8.1191  -1.0083   2.2306   3.0974   3.8766

          k = 0.0678 0.5092 0.0000 (  5112 PWs)   bands (ev):

   -19.1448 -16.1092 -10.9164  -7.1355  -2.3689   2.0563   4.6350   5.4131

          k = 0.0678 0.5875 0.0000 (  5080 PWs)   bands (ev):

   -18.3795 -17.0161 -11.0101  -6.6245  -3.0079   1.9955   6.3083   6.4772

          k = 0.1357 0.2350 0.0000 (  5169 PWs)   bands (ev):

   -21.9695 -11.0455 -10.0564  -9.7628   0.6185   1.3836   2.2039   2.3411

          k = 0.1357 0.3133 0.0000 (  5138 PWs)   bands (ev):

   -21.3056 -12.3528 -10.5768  -9.3077   0.9958   1.5316   2.3007   3.1372

          k = 0.1357 0.3917 0.0000 (  5124 PWs)   bands (ev):

   -20.4667 -13.8156 -11.1975  -8.3884  -0.4567   2.6974   3.4672   3.5461

          k = 0.1357 0.4700 0.0000 (  5116 PWs)   bands (ev):

   -19.4765 -15.2843 -11.6097  -7.3742  -1.8740   3.3072   4.1242   4.8602

          k = 0.1357 0.5483 0.0000 (  5096 PWs)   bands (ev):

   -18.4480 -16.5676 -11.8152  -6.5174  -2.9477   3.1890   5.7563   6.3602

          k = 0.2035 0.3525 0.0000 (  5135 PWs)   bands (ev):

   -20.5588 -13.3425 -11.6077  -8.4806  -0.2376   2.5704   3.3259   4.2040

          k = 0.2035 0.4308 0.0000 (  5124 PWs)   bands (ev):

   -19.6495 -14.5259 -12.3593  -7.5076  -1.5337   3.8550   4.5654   5.0461

          k = 0.2035 0.5092 0.0000 (  5097 PWs)   bands (ev):

   -18.6217 -15.7964 -12.7714  -6.5037  -2.7492   4.8413   5.3849   5.8412

          k = 0.2035 0.5875 0.0000 (  5124 PWs)   bands (ev):

   -17.8631 -16.6501 -12.9020  -5.9388  -3.3900   4.7826   6.4117   6.8846

          k = 0.2714 0.4700 0.0000 (  5110 PWs)   bands (ev):

   -18.6918 -15.3123 -13.3221  -6.5112  -2.6444   5.2339   5.6387   6.9295

          k = 0.2714 0.5483 0.0000 (  5126 PWs)   bands (ev):

   -17.6910 -16.2448 -13.8102  -5.5585  -3.6505   5.9922   6.4126   6.7743

          k = 0.3392 0.5875 0.0000 (  5148 PWs)   bands (ev):

   -16.8352 -16.8352 -14.2711  -4.5921  -4.5921   5.8464   7.2584   7.2584

     the Fermi energy is    -4.5921 ev

!    total energy              =     -22.77606280 Ry
     estimated scf accuracy    <          5.3E-09 Ry
     smearing contrib. (-TS)   =      -0.00005015 Ry
     internal energy E=F+TS    =     -22.77601265 Ry

     The total energy is F=E-TS. E is the sum of the following terms:
     one-electron contribution =    -354.60922058 Ry
     hartree contribution      =     177.84493248 Ry
     xc contribution           =      -6.83139229 Ry
     ewald contribution        =     160.81966774 Ry

     convergence has been achieved in  10 iterations

     Forces acting on atoms (cartesian axes, Ry/au):

     atom    1 type  1   force =    -0.00000000   -0.00000000    0.00000000
     atom    2 type  1   force =     0.00000000    0.00000000    0.00000000

     Total force =     0.000000     Total SCF correction =     0.000000


     Computing stress (Cartesian axis) and pressure

          total   stress  (Ry/bohr**3)                   (kbar)     P=      -57.85
  -0.00054532  -0.00000000   0.00000000          -80.22       -0.00        0.00
  -0.00000000  -0.00054532   0.00000000           -0.00      -80.22        0.00
   0.00000000   0.00000000  -0.00008913            0.00        0.00      -13.11

     Energy error            =      1.8E-02
     Gradient error          =      1.8E-26
     Cell gradient error     =      5.5E-04


     number of scf cycles    =   2
     number of bfgs steps    =   1

     enthalpy old            =     -22.7577746362 Ry
     enthalpy new            =     -22.7760628014 Ry

     CASE: enthalpy_new < enthalpy_old

     new trust radius        =       0.1114825977 bohr
     new conv_thr            =            1.0E-10 Ry

     new unit-cell volume =    798.14141 a.u.^3 (   118.27235 Ang^3 )
     density =      0.33726 g/cm^3

CELL_PARAMETERS (alat=  4.95000000)
   0.963700080   0.000000000   0.000000000
  -0.481850040   0.834588751   0.000000000
   0.000000000   0.000000000   8.181818182

ATOMIC_POSITIONS (crystal)
C             0.3333333333        0.6666666667        0.5000000000
C             0.6666666667        0.3333333333        0.5000000000



     Writing output data file ./work/LiC495.save/
     NEW-OLD atomic charge density approx. for the potential

     negative rho (up, down):  6.764E-06 0.000E+00
     extrapolated charge    7.68175, renormalised to    8.00000

     total cpu time spent up to now is        3.6 secs

     Self-consistent Calculation

     iteration #  1     ecut=    50.00 Ry     beta= 0.70
     Davidson diagonalization with overlap
     c_bands:  3 eigenvalues not converged
     c_bands:  1 eigenvalues not converged
     c_bands:  3 eigenvalues not converged
     c_bands:  2 eigenvalues not converged
     c_bands:  1 eigenvalues not converged
     c_bands:  1 eigenvalues not converged
     c_bands:  4 eigenvalues not converged
     c_bands:  3 eigenvalues not converged
     c_bands:  2 eigenvalues not converged
     c_bands:  2 eigenvalues not converged
     c_bands:  1 eigenvalues not converged
     c_bands:  1 eigenvalues not converged
     c_bands:  1 eigenvalues not converged
     c_bands:  3 eigenvalues not converged
     c_bands:  2 eigenvalues not converged
     c_bands:  2 eigenvalues not converged
     c_bands:  1 eigenvalues not converged
     c_bands:  2 eigenvalues not converged
     c_bands:  1 eigenvalues not converged
     c_bands:  1 eigenvalues not converged
     c_bands:  1 eigenvalues not converged
     ethr =  1.00E-06,  avg # of iterations = 19.0

     negative rho (up, down):  6.832E-07 0.000E+00

     total cpu time spent up to now is        4.1 secs

     total energy              =     -22.75116607 Ry
     estimated scf accuracy    <       0.02103118 Ry

     iteration #  2     ecut=    50.00 Ry     beta= 0.70
     Davidson diagonalization with overlap
     ethr =  2.63E-04,  avg # of iterations = 10.0

     negative rho (up, down):  1.488E-07 0.000E+00

     total cpu time spent up to now is        4.4 secs

     total energy              =     -22.79133375 Ry
     estimated scf accuracy    <       0.01880734 Ry

     iteration #  3     ecut=    50.00 Ry     beta= 0.70
     Davidson diagonalization with overlap
     ethr =  2.35E-04,  avg # of iterations =  1.0

     total cpu time spent up to now is        4.5 secs

     total energy              =     -22.78994870 Ry
     estimated scf accuracy    <       0.00405634 Ry

     iteration #  4     ecut=    50.00 Ry     beta= 0.70
     Davidson diagonalization with overlap
     ethr =  5.07E-05,  avg # of iterations =  3.0

     total cpu time spent up to now is        4.6 secs

     total energy              =     -22.79038063 Ry
     estimated scf accuracy    <       0.00013001 Ry

     iteration #  5     ecut=    50.00 Ry     beta= 0.70
     Davidson diagonalization with overlap
     c_bands:  1 eigenvalues not converged
     c_bands:  1 eigenvalues not converged
     c_bands:  1 eigenvalues not converged
     ethr =  1.63E-06,  avg # of iterations =  8.4

     total cpu time spent up to now is        4.9 secs

     total energy              =     -22.79041876 Ry
     estimated scf accuracy    <       0.00000666 Ry

     iteration #  6     ecut=    50.00 Ry     beta= 0.70
     Davidson diagonalization with overlap
     ethr =  8.32E-08,  avg # of iterations =  2.9

     total cpu time spent up to now is        5.0 secs

     total energy              =     -22.79040648 Ry
     estimated scf accuracy    <       0.00002313 Ry

     iteration #  7     ecut=    50.00 Ry     beta= 0.70
     Davidson diagonalization with overlap
     ethr =  8.32E-08,  avg # of iterations =  2.7

     total cpu time spent up to now is        5.1 secs

     total energy              =     -22.79041058 Ry
     estimated scf accuracy    <       0.00000058 Ry

     iteration #  8     ecut=    50.00 Ry     beta= 0.70
     Davidson diagonalization with overlap
     ethr =  7.20E-09,  avg # of iterations =  1.4

     total cpu time spent up to now is        5.3 secs

     total energy              =     -22.79041056 Ry
     estimated scf accuracy    <       0.00000036 Ry

     iteration #  9     ecut=    50.00 Ry     beta= 0.70
     Davidson diagonalization with overlap
     ethr =  4.53E-09,  avg # of iterations =  1.8

     total cpu time spent up to now is        5.4 secs

     total energy              =     -22.79041059 Ry
     estimated scf accuracy    <          1.1E-09 Ry

     iteration # 10     ecut=    50.00 Ry     beta= 0.70
     Davidson diagonalization with overlap
     ethr =  1.37E-11,  avg # of iterations =  3.9

     total cpu time spent up to now is        5.5 secs

     total energy              =     -22.79041059 Ry
     estimated scf accuracy    <          1.1E-09 Ry

     iteration # 11     ecut=    50.00 Ry     beta= 0.70
     Davidson diagonalization with overlap
     ethr =  1.37E-11,  avg # of iterations =  2.0

     total cpu time spent up to now is        5.7 secs

     total energy              =     -22.79041059 Ry
     estimated scf accuracy    <          6.3E-10 Ry

     iteration # 12     ecut=    50.00 Ry     beta= 0.70
     Davidson diagonalization with overlap
     ethr =  7.85E-12,  avg # of iterations =  1.8

     total cpu time spent up to now is        5.8 secs

     total energy              =     -22.79041059 Ry
     estimated scf accuracy    <          1.4E-10 Ry

     iteration # 13     ecut=    50.00 Ry     beta= 0.70
     Davidson diagonalization with overlap
     ethr =  1.78E-12,  avg # of iterations =  1.0

     total cpu time spent up to now is        5.9 secs

     End of self-consistent calculation

          k = 0.0000 0.0000 0.0000 (  5215 PWs)   bands (ev):

   -23.4209 -11.6024  -7.5454  -7.5454  -0.9637  -0.1973   0.6004   0.9532

          k =-0.0000 0.0799 0.0000 (  5197 PWs)   bands (ev):

   -23.3204 -11.4839  -7.9581  -7.7508  -0.8275  -0.0596   0.7392   1.0913

          k =-0.0000 0.1598 0.0000 (  5179 PWs)   bands (ev):

   -23.0196 -11.1302  -9.0524  -8.2742  -0.4192   0.3531   1.1558   1.5052

          k =-0.0000 0.2396 0.0000 (  5162 PWs)   bands (ev):

   -22.5209 -10.5486 -10.5466  -8.9311   0.2606   1.0381   1.8497   2.1919

          k =-0.0000 0.3195 0.0000 (  5140 PWs)   bands (ev):

   -21.8285 -12.2116  -9.7542  -9.5742   1.2094   1.8198   2.1095   2.7998

          k =-0.0000 0.3994 0.0000 (  5122 PWs)   bands (ev):

   -20.9509 -13.9023 -10.1102  -8.7794   0.2009   2.3922   2.6468   3.2448

          k =-0.0000 0.4793 0.0000 (  5102 PWs)   bands (ev):

   -19.9077 -15.5215 -10.4880  -7.7079  -1.4195   2.3811   3.9193   4.7349

          k =-0.0000 0.5592 0.0000 (  5108 PWs)   bands (ev):

   -18.7987 -16.9281 -10.6832  -6.8194  -2.6009   2.2673   5.6429   6.4674

          k = 0.0692 0.1198 0.0000 (  5191 PWs)   bands (ev):

   -23.1198 -11.2477  -8.6655  -8.1632  -0.5553   0.2157   1.0170   1.3673

          k = 0.0692 0.1997 0.0000 (  5173 PWs)   bands (ev):

   -22.7200 -10.7799  -9.8753  -8.8397  -0.0109   0.7650   1.5724   1.9185

          k = 0.0692 0.2796 0.0000 (  5156 PWs)   bands (ev):

   -22.1244 -11.3980 -10.0909  -9.5495   0.8041   1.5808   2.4047   2.6077

          k = 0.0692 0.3595 0.0000 (  5136 PWs)   bands (ev):

   -21.3391 -13.0452 -10.1712  -9.2022   0.9745   1.8858   2.6951   3.1937

          k = 0.0692 0.4393 0.0000 (  5114 PWs)   bands (ev):

   -20.3766 -14.6862 -10.6449  -8.1629  -0.6827   2.9121   3.2664   4.0493

          k = 0.0692 0.5192 0.0000 (  5112 PWs)   bands (ev):

   -19.2751 -16.2170 -10.9392  -7.1208  -2.1341   2.7628   4.8494   5.6543

          k = 0.0692 0.5991 0.0000 (  5080 PWs)   bands (ev):

   -18.4304 -17.2079 -11.0376  -6.5755  -2.8187   2.7049   6.6001   6.7638

          k = 0.1384 0.2396 0.0000 (  5169 PWs)   bands (ev):

   -22.2234 -10.9516 -10.2039  -9.7349   0.6690   1.4495   2.2669   2.6060

          k = 0.1384 0.3195 0.0000 (  5138 PWs)   bands (ev):

   -21.5345 -12.2947 -10.5886  -9.4164   1.4660   1.6183   2.4064   3.2381

          k = 0.1384 0.3994 0.0000 (  5124 PWs)   bands (ev):

   -20.6627 -13.8111 -11.2327  -8.4478  -0.0825   2.8317   3.6223   4.2612

          k = 0.1384 0.4793 0.0000 (  5116 PWs)   bands (ev):

   -19.6288 -15.3413 -11.6589  -7.3763  -1.5928   4.0273   4.3355   5.0779

          k = 0.1384 0.5592 0.0000 (  5096 PWs)   bands (ev):

   -18.5319 -16.7028 -11.8715  -6.4659  -2.7392   3.9320   6.0196   6.6586

          k = 0.2075 0.3595 0.0000 (  5135 PWs)   bands (ev):

   -20.7589 -13.2945 -11.6797  -8.5454   0.1588   2.6988   3.4744   4.3478

          k = 0.2075 0.4393 0.0000 (  5124 PWs)   bands (ev):

   -19.8119 -14.5190 -12.4620  -7.5189  -1.2166   4.0366   4.7699   5.7149

          k = 0.2075 0.5192 0.0000 (  5097 PWs)   bands (ev):

   -18.7332 -15.8551 -12.8815  -6.4567  -2.5083   5.5405   5.7251   6.1116

          k = 0.2075 0.5991 0.0000 (  5124 PWs)   bands (ev):

   -17.9042 -16.7852 -13.0135  -5.8552  -3.1918   5.5755   6.7126   7.2352

          k = 0.2767 0.4793 0.0000 (  5110 PWs)   bands (ev):

   -18.8113 -15.3041 -13.4931  -6.4666  -2.3872   5.4771   5.8959   7.1906

          k = 0.2767 0.5592 0.0000 (  5126 PWs)   bands (ev):

   -17.7522 -16.2828 -14.0061  -5.4581  -3.4509   6.2503   7.0180   7.3394

          k = 0.3459 0.5991 0.0000 (  5148 PWs)   bands (ev):

   -16.8567 -16.8567 -14.5284  -4.4393  -4.4393   6.0839   7.9088   7.9088

     the Fermi energy is    -4.4393 ev

!    total energy              =     -22.79041059 Ry
     estimated scf accuracy    <          1.4E-11 Ry
     smearing contrib. (-TS)   =      -0.00005015 Ry
     internal energy E=F+TS    =     -22.79036044 Ry

     The total energy is F=E-TS. E is the sum of the following terms:
     one-electron contribution =    -368.88722404 Ry
     hartree contribution      =     185.01808371 Ry
     xc contribution           =      -6.91137244 Ry
     ewald contribution        =     167.99015233 Ry

     convergence has been achieved in  13 iterations

     Forces acting on atoms (cartesian axes, Ry/au):

     atom    1 type  1   force =    -0.00000000   -0.00000000    0.00000000
     atom    2 type  1   force =     0.00000000    0.00000000    0.00000000

     Total force =     0.000000     Total SCF correction =     0.000000


     Computing stress (Cartesian axis) and pressure

          total   stress  (Ry/bohr**3)                   (kbar)     P=      -38.60
  -0.00034972  -0.00000000   0.00000000          -51.45       -0.00        0.00
  -0.00000000  -0.00034972   0.00000000           -0.00      -51.45        0.00
   0.00000000   0.00000000  -0.00008774            0.00        0.00      -12.91

     Energy error            =      1.4E-02
     Gradient error          =      1.8E-26
     Cell gradient error     =      3.5E-04


     number of scf cycles    =   3
     number of bfgs steps    =   2

     enthalpy old            =     -22.7760628014 Ry
     enthalpy new            =     -22.7904105912 Ry

     CASE: enthalpy_new < enthalpy_old

     new trust radius        =       0.1672238966 bohr
     new conv_thr            =            1.0E-10 Ry

     new unit-cell volume =    751.59742 a.u.^3 (   111.37525 Ang^3 )
     density =      0.35814 g/cm^3

CELL_PARAMETERS (alat=  4.95000000)
   0.935178714   0.000000000   0.000000000
  -0.467589357   0.809888523   0.000000000
   0.000000000   0.000000000   8.181818182

ATOMIC_POSITIONS (crystal)
C             0.3333333333        0.6666666667        0.5000000000
C             0.6666666667        0.3333333333        0.5000000000



     Writing output data file ./work/LiC495.save/
     NEW-OLD atomic charge density approx. for the potential

     negative rho (up, down):  4.184E-05 0.000E+00
     extrapolated charge    7.50545, renormalised to    8.00000

     total cpu time spent up to now is        6.0 secs

     Self-consistent Calculation

     iteration #  1     ecut=    50.00 Ry     beta= 0.70
     Davidson diagonalization with overlap
     c_bands:  2 eigenvalues not converged
     c_bands:  3 eigenvalues not converged
     c_bands:  3 eigenvalues not converged
     c_bands:  3 eigenvalues not converged
     c_bands:  1 eigenvalues not converged
     c_bands:  1 eigenvalues not converged
     c_bands:  1 eigenvalues not converged
     c_bands:  1 eigenvalues not converged
     c_bands:  2 eigenvalues not converged
     c_bands:  4 eigenvalues not converged
     c_bands:  3 eigenvalues not converged
     c_bands:  2 eigenvalues not converged
     c_bands:  2 eigenvalues not converged
     c_bands:  1 eigenvalues not converged
     c_bands:  1 eigenvalues not converged
     c_bands:  2 eigenvalues not converged
     c_bands:  3 eigenvalues not converged
     c_bands:  2 eigenvalues not converged
     c_bands:  1 eigenvalues not converged
     c_bands:  1 eigenvalues not converged
     c_bands:  3 eigenvalues not converged
     c_bands:  1 eigenvalues not converged
     c_bands:  1 eigenvalues not converged
     c_bands:  1 eigenvalues not converged
     c_bands:  2 eigenvalues not converged
     c_bands:  1 eigenvalues not converged
     ethr =  1.00E-06,  avg # of iterations = 19.7

     negative rho (up, down):  1.081E-05 0.000E+00

     total cpu time spent up to now is        6.6 secs

     total energy              =     -22.71288356 Ry
     estimated scf accuracy    <       0.04542139 Ry

     iteration #  2     ecut=    50.00 Ry     beta= 0.70
     Davidson diagonalization with overlap
     ethr =  5.68E-04,  avg # of iterations = 10.0

     negative rho (up, down):  5.360E-06 0.000E+00

     total cpu time spent up to now is        6.9 secs

     total energy              =     -22.80022917 Ry
     estimated scf accuracy    <       0.04136516 Ry

     iteration #  3     ecut=    50.00 Ry     beta= 0.70
     Davidson diagonalization with overlap
     ethr =  5.17E-04,  avg # of iterations =  1.0

     negative rho (up, down):  1.327E-06 0.000E+00

     total cpu time spent up to now is        7.0 secs

     total energy              =     -22.79807518 Ry
     estimated scf accuracy    <       0.00871871 Ry

     iteration #  4     ecut=    50.00 Ry     beta= 0.70
     Davidson diagonalization with overlap
     ethr =  1.09E-04,  avg # of iterations =  2.6

     negative rho (up, down):  1.965E-08 0.000E+00

     total cpu time spent up to now is        7.1 secs

     total energy              =     -22.79824772 Ry
     estimated scf accuracy    <       0.00096979 Ry

     iteration #  5     ecut=    50.00 Ry     beta= 0.70
     Davidson diagonalization with overlap
     ethr =  1.21E-05,  avg # of iterations =  5.7

     total cpu time spent up to now is        7.3 secs

     total energy              =     -22.79842386 Ry
     estimated scf accuracy    <       0.00000863 Ry

     iteration #  6     ecut=    50.00 Ry     beta= 0.70
     Davidson diagonalization with overlap
     c_bands:  1 eigenvalues not converged
     ethr =  1.08E-07,  avg # of iterations =  4.7

     total cpu time spent up to now is        7.5 secs

     total energy              =     -22.79841409 Ry
     estimated scf accuracy    <       0.00002323 Ry

     iteration #  7     ecut=    50.00 Ry     beta= 0.70
     Davidson diagonalization with overlap
     ethr =  1.08E-07,  avg # of iterations =  2.1

     total cpu time spent up to now is        7.6 secs

     total energy              =     -22.79841879 Ry
     estimated scf accuracy    <       0.00000037 Ry

     iteration #  8     ecut=    50.00 Ry     beta= 0.70
     Davidson diagonalization with overlap
     ethr =  4.60E-09,  avg # of iterations =  1.7

     total cpu time spent up to now is        7.7 secs

     total energy              =     -22.79841869 Ry
     estimated scf accuracy    <       0.00000022 Ry

     iteration #  9     ecut=    50.00 Ry     beta= 0.70
     Davidson diagonalization with overlap
     ethr =  2.75E-09,  avg # of iterations =  2.0

     total cpu time spent up to now is        7.8 secs

     total energy              =     -22.79841872 Ry
     estimated scf accuracy    <          2.2E-09 Ry

     iteration # 10     ecut=    50.00 Ry     beta= 0.70
     Davidson diagonalization with overlap
     ethr =  2.75E-11,  avg # of iterations =  3.4

     total cpu time spent up to now is        8.0 secs

     End of self-consistent calculation

          k = 0.0000 0.0000 0.0000 (  5215 PWs)   bands (ev):

   -23.8784 -11.9451  -7.2765  -7.2765  -0.9805  -0.1966   0.5989   0.9517

          k =-0.0000 0.0823 0.0000 (  5197 PWs)   bands (ev):

   -23.7725 -11.8176  -7.7013  -7.5025  -0.8362  -0.0501   0.7463   1.0985

          k =-0.0000 0.1646 0.0000 (  5179 PWs)   bands (ev):

   -23.4552 -11.4369  -8.8339  -8.0757  -0.4031   0.3888   1.1887   1.5388

          k =-0.0000 0.2469 0.0000 (  5162 PWs)   bands (ev):

   -22.9289 -10.8102 -10.3907  -8.7919   0.3183   1.1182   1.9257   2.2703

          k =-0.0000 0.3293 0.0000 (  5140 PWs)   bands (ev):

   -22.1976 -12.1346  -9.9528  -9.4897   1.3258   2.1032   2.7463   2.9556

          k =-0.0000 0.4116 0.0000 (  5122 PWs)   bands (ev):

   -21.2686 -13.9131 -10.0699  -8.8982   0.8070   2.6107   3.4720   3.7105

          k =-0.0000 0.4939 0.0000 (  5102 PWs)   bands (ev):

   -20.1573 -15.6276 -10.4782  -7.7334  -0.9768   3.4850   4.2217   5.0585

          k =-0.0000 0.5762 0.0000 (  5108 PWs)   bands (ev):

   -18.9348 -17.1618 -10.6890  -6.7577  -2.2824   3.3967   6.0419   6.9124

          k = 0.0713 0.1235 0.0000 (  5191 PWs)   bands (ev):

   -23.5608 -11.5633  -8.4287  -7.9551  -0.5474   0.2426   1.0413   1.3921

          k = 0.0713 0.2058 0.0000 (  5173 PWs)   bands (ev):

   -23.1390 -11.0595  -9.6822  -8.6922   0.0302   0.8271   1.6312   1.9785

          k = 0.0713 0.2881 0.0000 (  5156 PWs)   bands (ev):

   -22.5102 -11.2740 -10.3165  -9.4593   0.8953   1.6979   2.5156   2.8488

          k = 0.0713 0.3704 0.0000 (  5136 PWs)   bands (ev):

   -21.6800 -13.0048 -10.1285  -9.3562   1.6639   2.0447   2.8912   3.6899

          k = 0.0713 0.4527 0.0000 (  5114 PWs)   bands (ev):

   -20.6588 -14.7370 -10.6375  -8.2296  -0.1571   3.4599   4.0868   4.3280

          k = 0.0713 0.5351 0.0000 (  5112 PWs)   bands (ev):

   -19.4748 -16.3716 -10.9534  -7.0920  -1.7569   3.9013   5.2012   6.0428

          k = 0.0713 0.6174 0.0000 (  5080 PWs)   bands (ev):

   -18.4866 -17.5132 -11.0593  -6.4901  -2.5166   3.8535   7.0719   7.2277

          k = 0.1426 0.2469 0.0000 (  5169 PWs)   bands (ev):

   -22.6148 -10.7855 -10.4384  -9.6679   0.7520   1.5557   2.3688   2.7100

          k = 0.1426 0.3293 0.0000 (  5138 PWs)   bands (ev):

   -21.8870 -12.1879 -10.5840  -9.5882   1.7601   2.2243   2.5831   3.4009

          k = 0.1426 0.4116 0.0000 (  5124 PWs)   bands (ev):

   -20.9639 -13.7917 -11.2635  -8.5401   0.5248   3.0498   3.8725   4.7241

          k = 0.1426 0.4939 0.0000 (  5116 PWs)   bands (ev):

   -19.8623 -15.4191 -11.7117  -7.3754  -1.1375   4.6027   5.2558   5.4290

          k = 0.1426 0.5762 0.0000 (  5096 PWs)   bands (ev):

   -18.6557 -16.9060 -11.9355  -6.3771  -2.4034   5.1268   6.4473   7.1404

          k = 0.2139 0.3704 0.0000 (  5135 PWs)   bands (ev):

   -21.0662 -13.2019 -11.7732  -8.6462   0.8045   2.9082   3.7137   4.5799

          k = 0.2139 0.4527 0.0000 (  5124 PWs)   bands (ev):

   -20.0606 -14.4957 -12.5994  -7.5332  -0.6997   4.3312   5.1000   6.2909

          k = 0.2139 0.5351 0.0000 (  5097 PWs)   bands (ev):

   -18.9020 -15.9397 -13.0262  -6.3758  -2.1162   6.0049   6.5508   6.9179

          k = 0.2139 0.6174 0.0000 (  5124 PWs)   bands (ev):

   -17.9463 -17.0073 -13.1595  -5.7143  -2.8702   6.8387   7.2057   7.7844

          k = 0.2852 0.4939 0.0000 (  5110 PWs)   bands (ev):

   -18.9924 -15.2727 -13.7445  -6.3901  -1.9665   5.8688   6.3140   7.6134

          k = 0.2852 0.5762 0.0000 (  5126 PWs)   bands (ev):

   -17.8374 -16.3352 -14.2898  -5.2905  -3.1236   6.6717   7.5857   9.0624

          k = 0.3564 0.6174 0.0000 (  5148 PWs)   bands (ev):

   -16.8698 -16.8698 -14.9317  -4.1869  -4.1869   6.4714   8.8176   8.8176

     the Fermi energy is    -4.1869 ev

!    total energy              =     -22.79841871 Ry
     estimated scf accuracy    <          7.6E-11 Ry
     smearing contrib. (-TS)   =      -0.00005015 Ry
     internal energy E=F+TS    =     -22.79836856 Ry

     The total energy is F=E-TS. E is the sum of the following terms:
     one-electron contribution =    -391.99766696 Ry
     hartree contribution      =     196.63142704 Ry
     xc contribution           =      -7.03881019 Ry
     ewald contribution        =     179.60668154 Ry

     convergence has been achieved in  10 iterations

     Forces acting on atoms (cartesian axes, Ry/au):

     atom    1 type  1   force =     0.00000000    0.00000000    0.00000000
     atom    2 type  1   force =     0.00000000    0.00000000    0.00000000

     Total force =     0.000000     Total SCF correction =     0.000000


     Computing stress (Cartesian axis) and pressure

          total   stress  (Ry/bohr**3)                   (kbar)     P=       -1.72
   0.00002535   0.00000000   0.00000000            3.73        0.00        0.00
   0.00000000   0.00002535   0.00000000            0.00        3.73        0.00
   0.00000000   0.00000000  -0.00008582            0.00        0.00      -12.62

     Energy error            =      8.0E-03
     Gradient error          =      0.0E+00
     Cell gradient error     =      2.5E-05


     number of scf cycles    =   4
     number of bfgs steps    =   3

     enthalpy old            =     -22.7904105912 Ry
     enthalpy new            =     -22.7984187140 Ry

     CASE: enthalpy_new < enthalpy_old

     new trust radius        =       0.0109892927 bohr
     new conv_thr            =            1.0E-10 Ry

     new unit-cell volume =    754.61318 a.u.^3 (   111.82214 Ang^3 )
     density =      0.35671 g/cm^3

CELL_PARAMETERS (alat=  4.95000000)
   0.937053025   0.000000000   0.000000000
  -0.468526512   0.811511724   0.000000000
   0.000000000   0.000000000   8.181818182

ATOMIC_POSITIONS (crystal)
C             0.3333333333        0.6666666667        0.5000000000
C             0.6666666667        0.3333333333        0.5000000000



     Writing output data file ./work/LiC495.save/
     NEW-OLD atomic charge density approx. for the potential

     negative rho (up, down):  1.037E-06 0.000E+00
     extrapolated charge    8.03192, renormalised to    8.00000

     total cpu time spent up to now is        8.1 secs

     Self-consistent Calculation

     iteration #  1     ecut=    50.00 Ry     beta= 0.70
     Davidson diagonalization with overlap
     c_bands:  1 eigenvalues not converged
     c_bands:  1 eigenvalues not converged
     c_bands:  1 eigenvalues not converged
     c_bands:  1 eigenvalues not converged
     c_bands:  3 eigenvalues not converged
     c_bands:  1 eigenvalues not converged
     c_bands:  2 eigenvalues not converged
     ethr =  1.00E-06,  avg # of iterations = 14.1

     negative rho (up, down):  1.471E-08 0.000E+00

     total cpu time spent up to now is        8.4 secs

     total energy              =     -22.79780709 Ry
     estimated scf accuracy    <       0.00033059 Ry

     iteration #  2     ecut=    50.00 Ry     beta= 0.70
     Davidson diagonalization with overlap
     c_bands:  2 eigenvalues not converged
     c_bands:  1 eigenvalues not converged
     c_bands:  1 eigenvalues not converged
     c_bands:  1 eigenvalues not converged
     c_bands:  1 eigenvalues not converged
     ethr =  4.13E-06,  avg # of iterations = 13.3

     total cpu time spent up to now is        8.8 secs

     total energy              =     -22.79847208 Ry
     estimated scf accuracy    <       0.00031410 Ry

     iteration #  3     ecut=    50.00 Ry     beta= 0.70
     Davidson diagonalization with overlap
     ethr =  3.93E-06,  avg # of iterations =  1.7

     total cpu time spent up to now is        8.9 secs

     total energy              =     -22.79845743 Ry
     estimated scf accuracy    <       0.00007179 Ry

     iteration #  4     ecut=    50.00 Ry     beta= 0.70
     Davidson diagonalization with overlap
     ethr =  8.97E-07,  avg # of iterations =  1.2

     total cpu time spent up to now is        9.0 secs

     total energy              =     -22.79846030 Ry
     estimated scf accuracy    <       0.00001767 Ry

     iteration #  5     ecut=    50.00 Ry     beta= 0.70
     Davidson diagonalization with overlap
     ethr =  2.21E-07,  avg # of iterations =  1.0

     total cpu time spent up to now is        9.1 secs

     total energy              =     -22.79845026 Ry
     estimated scf accuracy    <       0.00001660 Ry

     iteration #  6     ecut=    50.00 Ry     beta= 0.70
     Davidson diagonalization with overlap
     ethr =  2.08E-07,  avg # of iterations =  2.2

     total cpu time spent up to now is        9.3 secs

     total energy              =     -22.79845262 Ry
     estimated scf accuracy    <       0.00000011 Ry

     iteration #  7     ecut=    50.00 Ry     beta= 0.70
     Davidson diagonalization with overlap
     ethr =  1.36E-09,  avg # of iterations =  2.9

     total cpu time spent up to now is        9.4 secs

     total energy              =     -22.79845271 Ry
     estimated scf accuracy    <       0.00000003 Ry

     iteration #  8     ecut=    50.00 Ry     beta= 0.70
     Davidson diagonalization with overlap
     ethr =  3.24E-10,  avg # of iterations =  2.0

     total cpu time spent up to now is        9.5 secs

     total energy              =     -22.79845271 Ry
     estimated scf accuracy    <       0.00000001 Ry

     iteration #  9     ecut=    50.00 Ry     beta= 0.70
     Davidson diagonalization with overlap
     ethr =  1.65E-10,  avg # of iterations =  2.0

     total cpu time spent up to now is        9.7 secs

     total energy              =     -22.79845271 Ry
     estimated scf accuracy    <          1.3E-10 Ry

     iteration # 10     ecut=    50.00 Ry     beta= 0.70
     Davidson diagonalization with overlap
     ethr =  1.57E-12,  avg # of iterations =  3.0

     total cpu time spent up to now is        9.8 secs

     End of self-consistent calculation

          k = 0.0000 0.0000 0.0000 (  5215 PWs)   bands (ev):

   -23.8479 -11.9218  -7.2959  -7.2959  -0.9794  -0.1966   0.5990   0.9518

          k =-0.0000 0.0822 0.0000 (  5197 PWs)   bands (ev):

   -23.7423 -11.7949  -7.7197  -7.5204  -0.8356  -0.0507   0.7459   1.0981

          k =-0.0000 0.1643 0.0000 (  5179 PWs)   bands (ev):

   -23.4262 -11.4160  -8.8496  -8.0902  -0.4042   0.3865   1.1865   1.5366

          k =-0.0000 0.2465 0.0000 (  5162 PWs)   bands (ev):

   -22.9017 -10.7925 -10.4020  -8.8023   0.3143   1.1127   1.9206   2.2650

          k =-0.0000 0.3286 0.0000 (  5140 PWs)   bands (ev):

   -22.1730 -12.1405  -9.9394  -9.4964   1.3177   2.0913   2.6967   2.9465

          k =-0.0000 0.4108 0.0000 (  5122 PWs)   bands (ev):

   -21.2475 -13.9130 -10.0735  -8.8902   0.7656   2.5971   3.4564   3.6369

          k =-0.0000 0.4929 0.0000 (  5102 PWs)   bands (ev):

   -20.1407 -15.6211 -10.4797  -7.7319  -1.0071   3.4105   4.1998   5.0365

          k =-0.0000 0.5751 0.0000 (  5108 PWs)   bands (ev):

   -18.9258 -17.1467 -10.6894  -6.7622  -2.3041   3.3192   6.0145   6.8821

          k = 0.0711 0.1232 0.0000 (  5191 PWs)   bands (ev):

   -23.5314 -11.5419  -8.4456  -7.9702  -0.5480   0.2408   1.0397   1.3905

          k = 0.0711 0.2054 0.0000 (  5173 PWs)   bands (ev):

   -23.1111 -11.0405  -9.6961  -8.7032   0.0273   0.8229   1.6272   1.9744

          k = 0.0711 0.2875 0.0000 (  5156 PWs)   bands (ev):

   -22.4845 -11.2830 -10.3012  -9.4663   0.8890   1.6900   2.5081   2.8414

          k = 0.0711 0.3697 0.0000 (  5136 PWs)   bands (ev):

   -21.6573 -13.0081 -10.1323  -9.3458   1.6169   2.0337   2.8775   3.6769

          k = 0.0711 0.4518 0.0000 (  5114 PWs)   bands (ev):

   -20.6401 -14.7342 -10.6388  -8.2252  -0.1931   3.4415   4.0117   4.3090

          k = 0.0711 0.5340 0.0000 (  5112 PWs)   bands (ev):

   -19.4615 -16.3619 -10.9533  -7.0942  -1.7827   3.8235   5.1767   6.0163

          k = 0.0711 0.6161 0.0000 (  5080 PWs)   bands (ev):

   -18.4838 -17.4925 -11.0587  -6.4962  -2.5372   3.7747   7.0395   7.1958

          k = 0.1423 0.2465 0.0000 (  5169 PWs)   bands (ev):

   -22.5888 -10.7975 -10.4225  -9.6733   0.7463   1.5485   2.3619   2.7029

          k = 0.1423 0.3286 0.0000 (  5138 PWs)   bands (ev):

   -21.8636 -12.1958 -10.5852  -9.5766   1.7504   2.1730   2.5702   3.3897

          k = 0.1423 0.4108 0.0000 (  5124 PWs)   bands (ev):

   -20.9439 -13.7936 -11.2624  -8.5339   0.4831   3.0347   3.8555   4.7066

          k = 0.1423 0.4929 0.0000 (  5116 PWs)   bands (ev):

   -19.8468 -15.4144 -11.7092  -7.3756  -1.1688   4.5801   5.1764   5.4050

          k = 0.1423 0.5751 0.0000 (  5096 PWs)   bands (ev):

   -18.6476 -16.8928 -11.9322  -6.3834  -2.4264   5.0452   6.4179   7.1075

          k = 0.2134 0.3697 0.0000 (  5135 PWs)   bands (ev):

   -21.0458 -13.2089 -11.7677  -8.6395   0.7601   2.8938   3.6974   4.5641

          k = 0.2134 0.4518 0.0000 (  5124 PWs)   bands (ev):

   -20.0441 -14.4978 -12.5911  -7.5324  -0.7353   4.3110   5.0775   6.0276

          k = 0.2134 0.5340 0.0000 (  5097 PWs)   bands (ev):

   -18.8908 -15.9344 -13.0176  -6.3815  -2.1432   5.9769   6.5207   6.8332

          k = 0.2134 0.6161 0.0000 (  5124 PWs)   bands (ev):

   -17.9443 -16.9919 -13.1508  -5.7242  -2.8923   6.7529   7.1716   7.7472

          k = 0.2846 0.4929 0.0000 (  5110 PWs)   bands (ev):

   -18.9805 -15.2756 -13.7283  -6.3955  -1.9955   5.8420   6.2853   7.6304

          k = 0.2846 0.5751 0.0000 (  5126 PWs)   bands (ev):

   -17.8321 -16.3320 -14.2718  -5.3022  -3.1462   6.6427   7.5489   8.4918

          k = 0.3557 0.6161 0.0000 (  5148 PWs)   bands (ev):

   -16.8698 -16.8698 -14.9045  -4.2044  -4.2044   6.4446   8.7598   8.7598

     the Fermi energy is    -4.2044 ev

!    total energy              =     -22.79845271 Ry
     estimated scf accuracy    <          7.9E-11 Ry
     smearing contrib. (-TS)   =      -0.00005015 Ry
     internal energy E=F+TS    =     -22.79840256 Ry

     The total energy is F=E-TS. E is the sum of the following terms:
     one-electron contribution =    -390.41242970 Ry
     hartree contribution      =     195.83470290 Ry
     xc contribution           =      -7.03014644 Ry
     ewald contribution        =     178.80947068 Ry

     convergence has been achieved in  10 iterations

     Forces acting on atoms (cartesian axes, Ry/au):

     atom    1 type  1   force =     0.00000000    0.00000000    0.00000000
     atom    2 type  1   force =     0.00000000    0.00000000    0.00000000

     Total force =     0.000000     Total SCF correction =     0.000000


     Computing stress (Cartesian axis) and pressure

          total   stress  (Ry/bohr**3)                   (kbar)     P=       -4.48
  -0.00000271  -0.00000000   0.00000000           -0.40       -0.00        0.00
  -0.00000000  -0.00000271   0.00000000           -0.00       -0.40        0.00
   0.00000000   0.00000000  -0.00008595            0.00        0.00      -12.64

     Energy error            =      3.4E-05
     Gradient error          =      0.0E+00
     Cell gradient error     =      2.7E-06


     number of scf cycles    =   5
     number of bfgs steps    =   4

     enthalpy old            =     -22.7984187140 Ry
     enthalpy new            =     -22.7984527067 Ry

     CASE: enthalpy_new < enthalpy_old

     new trust radius        =       0.0010641596 bohr
     new conv_thr            =            1.0E-10 Ry

     new unit-cell volume =    754.32088 a.u.^3 (   111.77882 Ang^3 )
     density =      0.35685 g/cm^3

CELL_PARAMETERS (alat=  4.95000000)
   0.936871524   0.000000000   0.000000000
  -0.468435762   0.811354540   0.000000000
   0.000000000   0.000000000   8.181818182

ATOMIC_POSITIONS (crystal)
C             0.3333333333        0.6666666667        0.5000000000
C             0.6666666667        0.3333333333        0.5000000000



     Writing output data file ./work/LiC495.save/
     NEW-OLD atomic charge density approx. for the potential
     extrapolated charge    7.99691, renormalised to    8.00000

     total cpu time spent up to now is        9.9 secs

     Self-consistent Calculation

     iteration #  1     ecut=    50.00 Ry     beta= 0.70
     Davidson diagonalization with overlap
     c_bands:  1 eigenvalues not converged
     ethr =  1.00E-06,  avg # of iterations =  5.0

     Threshold (ethr) on eigenvalues was too large:
     Diagonalizing with lowered threshold

     Davidson diagonalization with overlap
     ethr =  3.50E-08,  avg # of iterations =  1.6

     total cpu time spent up to now is       10.2 secs

     total energy              =     -22.79844743 Ry
     estimated scf accuracy    <       0.00000291 Ry

     iteration #  2     ecut=    50.00 Ry     beta= 0.70
     Davidson diagonalization with overlap
     ethr =  3.64E-08,  avg # of iterations =  4.6

     total cpu time spent up to now is       10.4 secs

     total energy              =     -22.79845327 Ry
     estimated scf accuracy    <       0.00000271 Ry

     iteration #  3     ecut=    50.00 Ry     beta= 0.70
     Davidson diagonalization with overlap
     ethr =  3.39E-08,  avg # of iterations =  1.0

     total cpu time spent up to now is       10.5 secs

     total energy              =     -22.79845309 Ry
     estimated scf accuracy    <       0.00000063 Ry

     iteration #  4     ecut=    50.00 Ry     beta= 0.70
     Davidson diagonalization with overlap
     ethr =  7.87E-09,  avg # of iterations =  2.0

     total cpu time spent up to now is       10.6 secs

     total energy              =     -22.79845314 Ry
     estimated scf accuracy    <       0.00000009 Ry

     iteration #  5     ecut=    50.00 Ry     beta= 0.70
     Davidson diagonalization with overlap
     ethr =  1.12E-09,  avg # of iterations =  1.0

     total cpu time spent up to now is       10.7 secs

     total energy              =     -22.79845312 Ry
     estimated scf accuracy    <       0.00000009 Ry

     iteration #  6     ecut=    50.00 Ry     beta= 0.70
     Davidson diagonalization with overlap
     ethr =  1.12E-09,  avg # of iterations =  1.0

     total cpu time spent up to now is       10.8 secs

     total energy              =     -22.79845310 Ry
     estimated scf accuracy    <       0.00000005 Ry

     iteration #  7     ecut=    50.00 Ry     beta= 0.70
     Davidson diagonalization with overlap
     ethr =  6.16E-10,  avg # of iterations =  2.0

     total cpu time spent up to now is       10.9 secs

     total energy              =     -22.79845310 Ry
     estimated scf accuracy    <          3.6E-10 Ry

     iteration #  8     ecut=    50.00 Ry     beta= 0.70
     Davidson diagonalization with overlap
     ethr =  4.48E-12,  avg # of iterations =  2.6

     total cpu time spent up to now is       11.1 secs

     End of self-consistent calculation

          k = 0.0000 0.0000 0.0000 (  5215 PWs)   bands (ev):

   -23.8508 -11.9240  -7.2939  -7.2939  -0.9795  -0.1966   0.5990   0.9518

          k =-0.0000 0.0822 0.0000 (  5197 PWs)   bands (ev):

   -23.7451 -11.7970  -7.7179  -7.5186  -0.8357  -0.0507   0.7459   1.0981

          k =-0.0000 0.1643 0.0000 (  5179 PWs)   bands (ev):

   -23.4289 -11.4180  -8.8480  -8.0887  -0.4041   0.3867   1.1867   1.5368

          k =-0.0000 0.2465 0.0000 (  5162 PWs)   bands (ev):

   -22.9042 -10.7941 -10.4008  -8.8012   0.3147   1.1132   1.9211   2.2655

          k =-0.0000 0.3287 0.0000 (  5140 PWs)   bands (ev):

   -22.1753 -12.1398  -9.9406  -9.4956   1.3185   2.0924   2.7013   2.9472

          k =-0.0000 0.4108 0.0000 (  5122 PWs)   bands (ev):

   -21.2494 -13.9130 -10.0730  -8.8909   0.7697   2.5985   3.4579   3.6442

          k =-0.0000 0.4930 0.0000 (  5102 PWs)   bands (ev):

   -20.1422 -15.6217 -10.4795  -7.7319  -1.0041   3.4179   4.2019   5.0386

          k =-0.0000 0.5752 0.0000 (  5108 PWs)   bands (ev):

   -18.9266 -17.1481 -10.6893  -6.7616  -2.3019   3.3268   6.0172   6.8850

          k = 0.0712 0.1233 0.0000 (  5191 PWs)   bands (ev):

   -23.5342 -11.5439  -8.4439  -7.9687  -0.5479   0.2410   1.0398   1.3907

          k = 0.0712 0.2054 0.0000 (  5173 PWs)   bands (ev):

   -23.1137 -11.0422  -9.6947  -8.7021   0.0276   0.8233   1.6276   1.9748

          k = 0.0712 0.2876 0.0000 (  5156 PWs)   bands (ev):

   -22.4869 -11.2821 -10.3026  -9.4655   0.8896   1.6907   2.5088   2.8410

          k = 0.0712 0.3698 0.0000 (  5136 PWs)   bands (ev):

   -21.6594 -13.0077 -10.1318  -9.3468   1.6215   2.0348   2.8788   3.6782

          k = 0.0712 0.4519 0.0000 (  5114 PWs)   bands (ev):

   -20.6418 -14.7344 -10.6386  -8.2256  -0.1895   3.4433   4.0190   4.3108

          k = 0.0712 0.5341 0.0000 (  5112 PWs)   bands (ev):

   -19.4627 -16.3627 -10.9532  -7.0939  -1.7801   3.8311   5.1791   6.0188

          k = 0.0712 0.6163 0.0000 (  5080 PWs)   bands (ev):

   -18.4840 -17.4944 -11.0587  -6.4956  -2.5351   3.7824   7.0426   7.1989

          k = 0.1423 0.2465 0.0000 (  5169 PWs)   bands (ev):

   -22.5912 -10.7963 -10.4240  -9.6727   0.7469   1.5491   2.3625   2.7036

          k = 0.1423 0.3287 0.0000 (  5138 PWs)   bands (ev):

   -21.8657 -12.1949 -10.5850  -9.5776   1.7513   2.1780   2.5714   3.3908

          k = 0.1423 0.4108 0.0000 (  5124 PWs)   bands (ev):

   -20.9457 -13.7933 -11.2624  -8.5344   0.4872   3.0362   3.8571   4.7082

          k = 0.1423 0.4930 0.0000 (  5116 PWs)   bands (ev):

   -19.8482 -15.4147 -11.7093  -7.3755  -1.1657   4.5823   5.1841   5.4073

          k = 0.1423 0.5752 0.0000 (  5096 PWs)   bands (ev):

   -18.6483 -16.8940 -11.9324  -6.3827  -2.4241   5.0532   6.4207   7.1107

          k = 0.2135 0.3698 0.0000 (  5135 PWs)   bands (ev):

   -21.0477 -13.2081 -11.7681  -8.6401   0.7644   2.8952   3.6989   4.5656

          k = 0.2135 0.4519 0.0000 (  5124 PWs)   bands (ev):

   -20.0456 -14.4975 -12.5918  -7.5324  -0.7318   4.3130   5.0796   6.0296

          k = 0.2135 0.5341 0.0000 (  5097 PWs)   bands (ev):

   -18.8918 -15.9348 -13.0184  -6.3809  -2.1405   5.9797   6.5236   6.8415

          k = 0.2135 0.6163 0.0000 (  5124 PWs)   bands (ev):

   -17.9444 -16.9933 -13.1516  -5.7232  -2.8901   6.7613   7.1749   7.7508

          k = 0.2846 0.4930 0.0000 (  5110 PWs)   bands (ev):

   -18.9815 -15.2752 -13.7298  -6.3949  -1.9926   5.8446   6.2881   7.5884

          k = 0.2846 0.5752 0.0000 (  5126 PWs)   bands (ev):

   -17.8325 -16.3322 -14.2734  -5.3010  -3.1440   6.6455   7.5524   8.5000

          k = 0.3558 0.6163 0.0000 (  5148 PWs)   bands (ev):

   -16.8697 -16.8697 -14.9071  -4.2027  -4.2027   6.4473   8.7654   8.7654

     the Fermi energy is    -4.2027 ev

!    total energy              =     -22.79845310 Ry
     estimated scf accuracy    <          8.7E-11 Ry
     smearing contrib. (-TS)   =      -0.00005015 Ry
     internal energy E=F+TS    =     -22.79840295 Ry

     The total energy is F=E-TS. E is the sum of the following terms:
     one-electron contribution =    -390.56549001 Ry
     hartree contribution      =     195.91161495 Ry
     xc contribution           =      -7.03098118 Ry
     ewald contribution        =     178.88645329 Ry

     convergence has been achieved in   8 iterations

     Forces acting on atoms (cartesian axes, Ry/au):

     atom    1 type  1   force =     0.00000000    0.00000000    0.00000000
     atom    2 type  1   force =     0.00000000    0.00000000    0.00000000

     Total force =     0.000000     Total SCF correction =     0.000000


     Computing stress (Cartesian axis) and pressure

          total   stress  (Ry/bohr**3)                   (kbar)     P=       -4.22
  -0.00000001  -0.00000000   0.00000000           -0.00       -0.00        0.00
  -0.00000000  -0.00000001  -0.00000000           -0.00       -0.00       -0.00
   0.00000000  -0.00000000  -0.00008596            0.00       -0.00      -12.65

     Energy error            =      4.0E-07
     Gradient error          =      0.0E+00
     Cell gradient error     =      1.3E-08


     number of scf cycles    =   6
     number of bfgs steps    =   5

     enthalpy old            =     -22.7984527067 Ry
     enthalpy new            =     -22.7984531049 Ry

     CASE: enthalpy_new < enthalpy_old

     small trust_radius: resetting bfgs history

     new trust radius        =       0.0000018081 bohr
     new conv_thr            =            1.0E-10 Ry

     new unit-cell volume =    754.32039 a.u.^3 (   111.77875 Ang^3 )
     density =      0.35685 g/cm^3

CELL_PARAMETERS (alat=  4.95000000)
   0.936871216   0.000000000   0.000000000
  -0.468435608   0.811354273   0.000000000
   0.000000000   0.000000000   8.181818182

ATOMIC_POSITIONS (crystal)
C             0.3333333333        0.6666666667        0.5000000000
C             0.6666666667        0.3333333333        0.5000000000



     Writing output data file ./work/LiC495.save/
     NEW-OLD atomic charge density approx. for the potential
     extrapolated charge    7.99999, renormalised to    8.00000

     total cpu time spent up to now is       11.1 secs

     Self-consistent Calculation

     iteration #  1     ecut=    50.00 Ry     beta= 0.70
     Davidson diagonalization with overlap
     ethr =  1.00E-06,  avg # of iterations =  1.0

     Threshold (ethr) on eigenvalues was too large:
     Diagonalizing with lowered threshold

     Davidson diagonalization with overlap
     ethr =  7.51E-13,  avg # of iterations =  1.9

     total cpu time spent up to now is       11.4 secs

     End of self-consistent calculation

          k = 0.0000 0.0000 0.0000 (  5215 PWs)   bands (ev):

   -23.8514 -11.9246  -7.2945  -7.2945  -0.9798  -0.1968   0.5991   0.9519

          k =-0.0000 0.0822 0.0000 (  5197 PWs)   bands (ev):

   -23.7458 -11.7976  -7.7185  -7.5192  -0.8360  -0.0509   0.7460   1.0982

          k =-0.0000 0.1643 0.0000 (  5179 PWs)   bands (ev):

   -23.4295 -11.4185  -8.8486  -8.0894  -0.4044   0.3865   1.1868   1.5368

          k =-0.0000 0.2465 0.0000 (  5162 PWs)   bands (ev):

   -22.9048 -10.7947 -10.4015  -8.8018   0.3144   1.1130   1.9212   2.2655

          k =-0.0000 0.3287 0.0000 (  5140 PWs)   bands (ev):

   -22.1759 -12.1405  -9.9412  -9.4963   1.3182   2.0922   2.7007   2.9472

          k =-0.0000 0.4108 0.0000 (  5122 PWs)   bands (ev):

   -21.2501 -13.9136 -10.0737  -8.8915   0.7691   2.5981   3.4577   3.6436

          k =-0.0000 0.4930 0.0000 (  5102 PWs)   bands (ev):

   -20.1428 -15.6223 -10.4801  -7.7325  -1.0046   3.4173   4.2016   5.0384

          k =-0.0000 0.5752 0.0000 (  5108 PWs)   bands (ev):

   -18.9272 -17.1487 -10.6899  -6.7622  -2.3025   3.3262   6.0168   6.8847

          k = 0.0712 0.1233 0.0000 (  5191 PWs)   bands (ev):

   -23.5348 -11.5444  -8.4445  -7.9693  -0.5482   0.2408   1.0399   1.3907

          k = 0.0712 0.2054 0.0000 (  5173 PWs)   bands (ev):

   -23.1143 -11.0428  -9.6953  -8.7027   0.0273   0.8231   1.6277   1.9749

          k = 0.0712 0.2876 0.0000 (  5156 PWs)   bands (ev):

   -22.4875 -11.2827 -10.3032  -9.4662   0.8893   1.6906   2.5089   2.8411

          k = 0.0712 0.3698 0.0000 (  5136 PWs)   bands (ev):

   -21.6601 -13.0083 -10.1324  -9.3473   1.6209   2.0345   2.8786   3.6783

          k = 0.0712 0.4519 0.0000 (  5114 PWs)   bands (ev):

   -20.6424 -14.7350 -10.6392  -8.2261  -0.1901   3.4429   4.0184   4.3106

          k = 0.0712 0.5341 0.0000 (  5112 PWs)   bands (ev):

   -19.4633 -16.3633 -10.9539  -7.0945  -1.7806   3.8305   5.1788   6.0186

          k = 0.0712 0.6163 0.0000 (  5080 PWs)   bands (ev):

   -18.4846 -17.4950 -11.0593  -6.4961  -2.5357   3.7818   7.0423   7.1986

          k = 0.1423 0.2465 0.0000 (  5169 PWs)   bands (ev):

   -22.5918 -10.7969 -10.4245  -9.6733   0.7466   1.5490   2.3626   2.7037

          k = 0.1423 0.3287 0.0000 (  5138 PWs)   bands (ev):

   -21.8664 -12.1955 -10.5857  -9.5782   1.7510   2.1775   2.5712   3.3909

          k = 0.1423 0.4108 0.0000 (  5124 PWs)   bands (ev):

   -20.9464 -13.7939 -11.2630  -8.5350   0.4866   3.0359   3.8569   4.7083

          k = 0.1423 0.4930 0.0000 (  5116 PWs)   bands (ev):

   -19.8488 -15.4154 -11.7099  -7.3761  -1.1662   4.5819   5.1836   5.4071

          k = 0.1423 0.5752 0.0000 (  5096 PWs)   bands (ev):

   -18.6489 -16.8946 -11.9330  -6.3833  -2.4247   5.0526   6.4204   7.1104

          k = 0.2135 0.3698 0.0000 (  5135 PWs)   bands (ev):

   -21.0483 -13.2088 -11.7688  -8.6406   0.7639   2.8949   3.6987   4.5657

          k = 0.2135 0.4519 0.0000 (  5124 PWs)   bands (ev):

   -20.0462 -14.4981 -12.5924  -7.5330  -0.7324   4.3126   5.0794   6.0297

          k = 0.2135 0.5341 0.0000 (  5097 PWs)   bands (ev):

   -18.8924 -15.9354 -13.0190  -6.3815  -2.1411   5.9793   6.5232   6.8409

          k = 0.2135 0.6163 0.0000 (  5124 PWs)   bands (ev):

   -17.9451 -16.9939 -13.1522  -5.7238  -2.8907   6.7607   7.1745   7.7504

          k = 0.2846 0.4930 0.0000 (  5110 PWs)   bands (ev):

   -18.9821 -15.2758 -13.7304  -6.3955  -1.9932   5.8442   6.2878   7.5883

          k = 0.2846 0.5752 0.0000 (  5126 PWs)   bands (ev):

   -17.8331 -16.3328 -14.2740  -5.3016  -3.1445   6.6451   7.5521   8.4994

          k = 0.3558 0.6163 0.0000 (  5148 PWs)   bands (ev):

   -16.8703 -16.8703 -14.9077  -4.2032  -4.2032   6.4468   8.7650   8.7650

     the Fermi energy is    -4.2032 ev

!    total energy              =     -22.79845310 Ry
     estimated scf accuracy    <          6.4E-11 Ry
     smearing contrib. (-TS)   =      -0.00005015 Ry
     internal energy E=F+TS    =     -22.79840295 Ry

     The total energy is F=E-TS. E is the sum of the following terms:
     one-electron contribution =    -390.56583269 Ry
     hartree contribution      =     195.91183741 Ry
     xc contribution           =      -7.03099180 Ry
     ewald contribution        =     178.88658413 Ry

     convergence has been achieved in   1 iterations

     Forces acting on atoms (cartesian axes, Ry/au):

     atom    1 type  1   force =     0.00000000    0.00000000    0.00000000
     atom    2 type  1   force =     0.00000000    0.00000000    0.00000000

     Total force =     0.000000     Total SCF correction =     0.000000


     Computing stress (Cartesian axis) and pressure

          total   stress  (Ry/bohr**3)                   (kbar)     P=       -4.21
  -0.00000002  -0.00000000  -0.00000000           -0.00       -0.00       -0.00
  -0.00000000  -0.00000002   0.00000000           -0.00       -0.00        0.00
   0.00000000  -0.00000000  -0.00008587            0.00       -0.00      -12.63

     Energy error            =      6.6E-11
     Gradient error          =      0.0E+00
     Cell gradient error     =      1.6E-08


     number of scf cycles    =   7
     number of bfgs steps    =   6

     enthalpy old            =     -22.7984531049 Ry
     enthalpy new            =     -22.7984531049 Ry

     CASE: enthalpy_new > enthalpy_old

     new trust radius        =       0.0000000810 bohr

     trust_radius < trust_radius_min

     resetting bfgs history

     Message from routine bfgs:
     history already reset at previous step: stopping
     new conv_thr            =            1.0E-10 Ry

     new unit-cell volume =    754.32039 a.u.^3 (   111.77875 Ang^3 )
     density =      0.35685 g/cm^3

CELL_PARAMETERS (alat=  4.95000000)
   0.936871216   0.000000000   0.000000000
  -0.468435608   0.811354273   0.000000000
   0.000000000   0.000000000   8.181818182

ATOMIC_POSITIONS (crystal)
C             0.3333333333        0.6666666667        0.5000000000
C             0.6666666667        0.3333333333        0.5000000000



     Writing output data file ./work/LiC495.save/
     NEW-OLD atomic charge density approx. for the potential

     total cpu time spent up to now is       11.5 secs

     Self-consistent Calculation

     iteration #  1     ecut=    50.00 Ry     beta= 0.70
     Davidson diagonalization with overlap
     ethr =  1.00E-06,  avg # of iterations =  1.0

     Threshold (ethr) on eigenvalues was too large:
     Diagonalizing with lowered threshold

     Davidson diagonalization with overlap
     ethr =  5.04E-13,  avg # of iterations =  1.8

     total cpu time spent up to now is       11.7 secs

     End of self-consistent calculation

          k = 0.0000 0.0000 0.0000 (  5215 PWs)   bands (ev):

   -23.8508 -11.9240  -7.2939  -7.2939  -0.9795  -0.1966   0.5990   0.9518

          k =-0.0000 0.0822 0.0000 (  5197 PWs)   bands (ev):

   -23.7452 -11.7970  -7.7179  -7.5186  -0.8357  -0.0507   0.7459   1.0981

          k =-0.0000 0.1643 0.0000 (  5179 PWs)   bands (ev):

   -23.4289 -11.4180  -8.8480  -8.0887  -0.4041   0.3867   1.1867   1.5368

          k =-0.0000 0.2465 0.0000 (  5162 PWs)   bands (ev):

   -22.9042 -10.7941 -10.4009  -8.8012   0.3147   1.1131   1.9211   2.2655

          k =-0.0000 0.3287 0.0000 (  5140 PWs)   bands (ev):

   -22.1753 -12.1398  -9.9406  -9.4956   1.3185   2.0924   2.7012   2.9471

          k =-0.0000 0.4108 0.0000 (  5122 PWs)   bands (ev):

   -21.2495 -13.9130 -10.0730  -8.8909   0.7697   2.5984   3.4578   3.6442

          k =-0.0000 0.4930 0.0000 (  5102 PWs)   bands (ev):

   -20.1422 -15.6217 -10.4795  -7.7320  -1.0041   3.4178   4.2019   5.0385

          k =-0.0000 0.5752 0.0000 (  5108 PWs)   bands (ev):

   -18.9266 -17.1481 -10.6893  -6.7617  -2.3019   3.3268   6.0171   6.8849

          k = 0.0712 0.1233 0.0000 (  5191 PWs)   bands (ev):

   -23.5342 -11.5439  -8.4439  -7.9687  -0.5479   0.2410   1.0398   1.3907

          k = 0.0712 0.2054 0.0000 (  5173 PWs)   bands (ev):

   -23.1138 -11.0423  -9.6947  -8.7021   0.0276   0.8233   1.6276   1.9748

          k = 0.0712 0.2876 0.0000 (  5156 PWs)   bands (ev):

   -22.4870 -11.2821 -10.3026  -9.4656   0.8896   1.6907   2.5088   2.8410

          k = 0.0712 0.3698 0.0000 (  5136 PWs)   bands (ev):

   -21.6595 -13.0077 -10.1318  -9.3468   1.6215   2.0348   2.8788   3.6782

          k = 0.0712 0.4519 0.0000 (  5114 PWs)   bands (ev):

   -20.6418 -14.7344 -10.6386  -8.2256  -0.1895   3.4433   4.0190   4.3108

          k = 0.0712 0.5341 0.0000 (  5112 PWs)   bands (ev):

   -19.4627 -16.3627 -10.9533  -7.0939  -1.7801   3.8311   5.1791   6.0188

          k = 0.0712 0.6163 0.0000 (  5080 PWs)   bands (ev):

   -18.4840 -17.4944 -11.0587  -6.4956  -2.5351   3.7824   7.0426   7.1989

          k = 0.1423 0.2465 0.0000 (  5169 PWs)   bands (ev):

   -22.5912 -10.7963 -10.4240  -9.6727   0.7468   1.5491   2.3625   2.7036

          k = 0.1423 0.3287 0.0000 (  5138 PWs)   bands (ev):

   -21.8658 -12.1949 -10.5850  -9.5776   1.7513   2.1780   2.5714   3.3908

          k = 0.1423 0.4108 0.0000 (  5124 PWs)   bands (ev):

   -20.9458 -13.7933 -11.2624  -8.5345   0.4872   3.0362   3.8571   4.7082

          k = 0.1423 0.4930 0.0000 (  5116 PWs)   bands (ev):

   -19.8482 -15.4148 -11.7093  -7.3755  -1.1657   4.5823   5.1841   5.4073

          k = 0.1423 0.5752 0.0000 (  5096 PWs)   bands (ev):

   -18.6483 -16.8940 -11.9324  -6.3828  -2.4241   5.0532   6.4207   7.1107

          k = 0.2135 0.3698 0.0000 (  5135 PWs)   bands (ev):

   -21.0477 -13.2081 -11.7682  -8.6401   0.7644   2.8952   3.6989   4.5656

          k = 0.2135 0.4519 0.0000 (  5124 PWs)   bands (ev):

   -20.0457 -14.4975 -12.5918  -7.5325  -0.7318   4.3129   5.0796   6.0296

          k = 0.2135 0.5341 0.0000 (  5097 PWs)   bands (ev):

   -18.8918 -15.9348 -13.0184  -6.3809  -2.1405   5.9796   6.5235   6.8415

          k = 0.2135 0.6163 0.0000 (  5124 PWs)   bands (ev):

   -17.9445 -16.9933 -13.1516  -5.7232  -2.8901   6.7613   7.1749   7.7508

          k = 0.2846 0.4930 0.0000 (  5110 PWs)   bands (ev):

   -18.9815 -15.2752 -13.7298  -6.3949  -1.9926   5.8446   6.2881   7.5883

          k = 0.2846 0.5752 0.0000 (  5126 PWs)   bands (ev):

   -17.8325 -16.3322 -14.2734  -5.3010  -3.1440   6.6455   7.5524   8.4999

          k = 0.3558 0.6163 0.0000 (  5148 PWs)   bands (ev):

   -16.8697 -16.8697 -14.9071  -4.2027  -4.2027   6.4473   8.7654   8.7654

     the Fermi energy is    -4.2027 ev

!    total energy              =     -22.79845310 Ry
     estimated scf accuracy    <          4.3E-11 Ry
     smearing contrib. (-TS)   =      -0.00005015 Ry
     internal energy E=F+TS    =     -22.79840295 Ry

     The total energy is F=E-TS. E is the sum of the following terms:
     one-electron contribution =    -390.56576094 Ry
     hartree contribution      =     195.91175799 Ry
     xc contribution           =      -7.03098413 Ry
     ewald contribution        =     178.88658413 Ry

     convergence has been achieved in   1 iterations

     Forces acting on atoms (cartesian axes, Ry/au):

     atom    1 type  1   force =     0.00000000    0.00000000    0.00000000
     atom    2 type  1   force =    -0.00000000   -0.00000000    0.00000000

     Total force =     0.000000     Total SCF correction =     0.000000


     Computing stress (Cartesian axis) and pressure

          total   stress  (Ry/bohr**3)                   (kbar)     P=       -4.22
  -0.00000001  -0.00000000   0.00000000           -0.00       -0.00        0.00
  -0.00000000  -0.00000001  -0.00000000           -0.00       -0.00       -0.00
  -0.00000000   0.00000000  -0.00008595           -0.00        0.00      -12.64

     Message from routine bfgs:
     history already reset at previous step: stopping
     Energy error            =      2.1E-13
     Gradient error          =      1.8E-26
     Cell gradient error     =      7.5E-09


     bfgs converged in   8 scf cycles and   6 bfgs steps
     (criteria: energy <  1.0E-04 Ry, force <  1.0E-08Ry/Bohr, cell <  1.0E-03kbar)

     End of BFGS Geometry Optimization

     Final enthalpy =     -22.7984531049 Ry

     File ./work/LiC495.bfgs deleted, as requested
Begin final coordinates
     new unit-cell volume =    754.32039 a.u.^3 (   111.77875 Ang^3 )
     density =      0.35685 g/cm^3

CELL_PARAMETERS (alat=  4.95000000)
   0.936871216   0.000000000   0.000000000
  -0.468435608   0.811354273   0.000000000
   0.000000000   0.000000000   8.181818182

ATOMIC_POSITIONS (crystal)
C             0.3333333333        0.6666666667        0.5000000000
C             0.6666666667        0.3333333333        0.5000000000
End final coordinates



     Writing output data file ./work/LiC495.save/

     Final scf calculation at the relaxed structure.
     The G-vectors are recalculated for the final unit cell
     Results may differ from those at the preceding step.
 
     Parallelization info
     --------------------
     sticks:   dense  smooth     PW     G-vecs:    dense   smooth      PW
     Min           9       9      2                 1117     1117     170
     Max          10      10      3                 1146     1146     215
     Sum         301     301     91                36087    36087    6397
 


     bravais-lattice index     =            4
     lattice parameter (alat)  =       4.9500  a.u.
     unit-cell volume          =     754.3204 (a.u.)^3
     number of atoms/cell      =            2
     number of atomic types    =            1
     number of electrons       =         8.00
     number of Kohn-Sham states=            8
     kinetic-energy cutoff     =      50.0000  Ry
     charge density cutoff     =     200.0000  Ry
     scf convergence threshold =      1.0E-10
     mixing beta               =       0.7000
     number of iterations used =            8  plain     mixing
     press convergence thresh. =      1.0E-03
     Exchange-correlation= PBE
                           (   1   4   3   4   0   0   0)

     celldm(1)=   4.950000  celldm(2)=   0.000000  celldm(3)=   8.181818
     celldm(4)=   0.000000  celldm(5)=   0.000000  celldm(6)=   0.000000

     crystal axes: (cart. coord. in units of alat)
               a(1) = (   0.936871   0.000000   0.000000 )  
               a(2) = (  -0.468436   0.811354   0.000000 )  
               a(3) = (   0.000000   0.000000   8.181818 )  

     reciprocal axes: (cart. coord. in units 2 pi/alat)
               b(1) = (  1.067383  0.616254  0.000000 )  
               b(2) = ( -0.000000  1.232507  0.000000 )  
               b(3) = (  0.000000  0.000000  0.122222 )  


     PseudoPot. # 1 for C  read from file:
     /home/yhkim/qe-6.7/pseudo/ONCV1/1.2/C_ONCV_PBE-1.2.upf
     MD5 check sum: 1a5f83a7b1f58d24996abe00ed223ac6
     Pseudo is Norm-conserving, Zval =  4.0
     Generated using ONCVPSP code by D. R. Hamann
     Using radial grid of  602 points,  4 beta functions with: 
                l(1) =   0
                l(2) =   0
                l(3) =   1
                l(4) =   1

     atomic species   valence    mass     pseudopotential
        C              4.00    12.01070     C ( 1.00)

     24 Sym. Ops., with inversion, found



   Cartesian axes

     site n.     atom                  positions (alat units)
         1           C   tau(   1) = (  -0.0000000   0.5409028   4.0909091  )
         2           C   tau(   2) = (   0.4684356   0.2704514   4.0909091  )

     number of k points=    27  Methfessel-Paxton smearing, width (Ry)=  0.0100
                       cart. coord. in units 2pi/alat
        k(    1) = (   0.0000000   0.0000000   0.0000000), wk =   0.0088889
        k(    2) = (  -0.0000000   0.0821671   0.0000000), wk =   0.0533333
        k(    3) = (  -0.0000000   0.1643343   0.0000000), wk =   0.0533333
        k(    4) = (  -0.0000000   0.2465014   0.0000000), wk =   0.0533333
        k(    5) = (  -0.0000000   0.3286686   0.0000000), wk =   0.0533333
        k(    6) = (  -0.0000000   0.4108357   0.0000000), wk =   0.0533333
        k(    7) = (  -0.0000000   0.4930029   0.0000000), wk =   0.0533333
        k(    8) = (  -0.0000000   0.5751700   0.0000000), wk =   0.0533333
        k(    9) = (   0.0711588   0.1232507   0.0000000), wk =   0.0533333
        k(   10) = (   0.0711588   0.2054179   0.0000000), wk =   0.1066667
        k(   11) = (   0.0711588   0.2875850   0.0000000), wk =   0.1066667
        k(   12) = (   0.0711588   0.3697522   0.0000000), wk =   0.1066667
        k(   13) = (   0.0711588   0.4519193   0.0000000), wk =   0.1066667
        k(   14) = (   0.0711588   0.5340865   0.0000000), wk =   0.1066667
        k(   15) = (   0.0711588   0.6162536   0.0000000), wk =   0.0533333
        k(   16) = (   0.1423177   0.2465014   0.0000000), wk =   0.0533333
        k(   17) = (   0.1423177   0.3286686   0.0000000), wk =   0.1066667
        k(   18) = (   0.1423177   0.4108357   0.0000000), wk =   0.1066667
        k(   19) = (   0.1423177   0.4930029   0.0000000), wk =   0.1066667
        k(   20) = (   0.1423177   0.5751700   0.0000000), wk =   0.1066667
        k(   21) = (   0.2134765   0.3697522   0.0000000), wk =   0.0533333
        k(   22) = (   0.2134765   0.4519193   0.0000000), wk =   0.1066667
        k(   23) = (   0.2134765   0.5340865   0.0000000), wk =   0.1066667
        k(   24) = (   0.2134765   0.6162536   0.0000000), wk =   0.0533333
        k(   25) = (   0.2846354   0.4930029   0.0000000), wk =   0.0533333
        k(   26) = (   0.2846354   0.5751700   0.0000000), wk =   0.1066667
        k(   27) = (   0.3557942   0.6162536   0.0000000), wk =   0.0177778

     Dense  grid:    36087 G-vectors     FFT dimensions: (  24,  24, 192)

     Estimated max dynamical RAM per process >       1.96 MB

     Estimated total dynamical RAM >      62.62 MB
 ----2D----2D----2D----2D----2D----2D----2D----2D----2D----2D----2D----2D
  The code is running with the 2D cutoff
  Please refer to:
  Sohier, T., Calandra, M., & Mauri, F. (2017), 
  Density functional perturbation theory for gated two-dimensional heterostructu
 res:
  Theoretical developments and application to flexural phonons in graphene.
  Physical Review B, 96(7), 75448. https://doi.org/10.1103/PhysRevB.96.075448
 ----2D----2D----2D----2D----2D----2D----2D----2D----2D----2D----2D----2D

     Initial potential from superposition of free atoms

     starting charge    7.98607, renormalised to    8.00000

     negative rho (up, down):  1.165E-04 0.000E+00
     Starting wfcs are random

     total cpu time spent up to now is       11.8 secs

     Self-consistent Calculation

     iteration #  1     ecut=    50.00 Ry     beta= 0.70
     Davidson diagonalization with overlap
     c_bands:  5 eigenvalues not converged
     c_bands:  3 eigenvalues not converged
     c_bands:  3 eigenvalues not converged
     c_bands:  4 eigenvalues not converged
     c_bands:  4 eigenvalues not converged
     c_bands:  3 eigenvalues not converged
     c_bands:  2 eigenvalues not converged
     c_bands:  2 eigenvalues not converged
     c_bands:  2 eigenvalues not converged
     c_bands:  4 eigenvalues not converged
     c_bands:  4 eigenvalues not converged
     c_bands:  4 eigenvalues not converged
     c_bands:  3 eigenvalues not converged
     c_bands:  2 eigenvalues not converged
     c_bands:  2 eigenvalues not converged
     c_bands:  3 eigenvalues not converged
     c_bands:  4 eigenvalues not converged
     c_bands:  4 eigenvalues not converged
     c_bands:  3 eigenvalues not converged
     c_bands:  3 eigenvalues not converged
     c_bands:  4 eigenvalues not converged
     c_bands:  3 eigenvalues not converged
     c_bands:  3 eigenvalues not converged
     c_bands:  3 eigenvalues not converged
     c_bands:  3 eigenvalues not converged
     c_bands:  3 eigenvalues not converged
     c_bands:  2 eigenvalues not converged
     ethr =  1.00E-06,  avg # of iterations = 23.0

     negative rho (up, down):  2.322E-05 0.000E+00

     total cpu time spent up to now is       12.6 secs

     total energy              =     -22.76043818 Ry
     estimated scf accuracy    <       0.19833610 Ry

     iteration #  2     ecut=    50.00 Ry     beta= 0.70
     Davidson diagonalization with overlap
     ethr =  2.48E-03,  avg # of iterations =  2.2

     negative rho (up, down):  3.159E-06 0.000E+00

     total cpu time spent up to now is       12.7 secs

     total energy              =     -22.79031159 Ry
     estimated scf accuracy    <       0.00233931 Ry

     iteration #  3     ecut=    50.00 Ry     beta= 0.70
     Davidson diagonalization with overlap
     ethr =  2.92E-05,  avg # of iterations =  9.7

     total cpu time spent up to now is       12.9 secs

     total energy              =     -22.79069861 Ry
     estimated scf accuracy    <       0.00017286 Ry

     iteration #  4     ecut=    50.00 Ry     beta= 0.70
     Davidson diagonalization with overlap
     c_bands:  1 eigenvalues not converged
     ethr =  2.16E-06,  avg # of iterations =  5.7

     total cpu time spent up to now is       13.0 secs

     total energy              =     -22.79071202 Ry
     estimated scf accuracy    <       0.00000122 Ry

     iteration #  5     ecut=    50.00 Ry     beta= 0.70
     Davidson diagonalization with overlap
     ethr =  1.52E-08,  avg # of iterations =  3.9

     total cpu time spent up to now is       13.2 secs

     total energy              =     -22.79071347 Ry
     estimated scf accuracy    <       0.00000004 Ry

     iteration #  6     ecut=    50.00 Ry     beta= 0.70
     Davidson diagonalization with overlap
     ethr =  5.23E-10,  avg # of iterations =  2.5

     total cpu time spent up to now is       13.3 secs

     total energy              =     -22.79071348 Ry
     estimated scf accuracy    <          1.3E-09 Ry

     iteration #  7     ecut=    50.00 Ry     beta= 0.70
     Davidson diagonalization with overlap
     ethr =  1.60E-11,  avg # of iterations =  2.9

     total cpu time spent up to now is       13.4 secs

     End of self-consistent calculation

          k = 0.0000 0.0000 0.0000 (  4483 PWs)   bands (ev):

   -23.8635 -11.9282  -7.2824  -7.2824  -0.9828  -0.2035   0.5841   0.9392

          k =-0.0000 0.0822 0.0000 (  4471 PWs)   bands (ev):

   -23.7576 -11.8003  -7.7062  -7.5057  -0.8389  -0.0575   0.7310   1.0855

          k =-0.0000 0.1643 0.0000 (  4489 PWs)   bands (ev):

   -23.4412 -11.4212  -8.8368  -8.0756  -0.4072   0.3799   1.1718   1.5242

          k =-0.0000 0.2465 0.0000 (  4471 PWs)   bands (ev):

   -22.9161 -10.7975 -10.3893  -8.7874   0.3117   1.1066   1.9062   2.2528

          k =-0.0000 0.3287 0.0000 (  4515 PWs)   bands (ev):

   -22.1870 -12.1360  -9.9438  -9.4847   1.3158   2.0871   2.7045   2.9323

          k =-0.0000 0.4108 0.0000 (  4527 PWs)   bands (ev):

   -21.2609 -13.9148 -10.0629  -8.8930   0.7733   2.5962   3.4518   3.6391

          k =-0.0000 0.4930 0.0000 (  4529 PWs)   bands (ev):

   -20.1533 -15.6270 -10.4720  -7.7330  -1.0017   3.4104   4.1988   5.0330

          k =-0.0000 0.5752 0.0000 (  4529 PWs)   bands (ev):

   -18.9371 -17.1548 -10.6818  -6.7621  -2.3014   3.3178   6.0153   6.8803

          k = 0.0712 0.1233 0.0000 (  4503 PWs)   bands (ev):

   -23.5466 -11.5470  -8.4328  -7.9581  -0.5511   0.2342   1.0249   1.3781

          k = 0.0712 0.2054 0.0000 (  4499 PWs)   bands (ev):

   -23.1260 -11.0453  -9.6839  -8.6914   0.0246   0.8166   1.6127   1.9622

          k = 0.0712 0.2876 0.0000 (  4491 PWs)   bands (ev):

   -22.4988 -11.2750 -10.3050  -9.4542   0.8868   1.6844   2.4940   2.8285

          k = 0.0712 0.3698 0.0000 (  4506 PWs)   bands (ev):

   -21.6710 -13.0065 -10.1214  -9.3488   1.6272   2.0322   2.8727   3.6638

          k = 0.0712 0.4519 0.0000 (  4518 PWs)   bands (ev):

   -20.6529 -14.7378 -10.6302  -8.2275  -0.1872   3.4415   4.0142   4.3051

          k = 0.0712 0.5341 0.0000 (  4523 PWs)   bands (ev):

   -19.4733 -16.3685 -10.9453  -7.0954  -1.7777   3.8251   5.1768   6.0139

          k = 0.0712 0.6163 0.0000 (  4530 PWs)   bands (ev):

   -18.4952 -17.5008 -11.0522  -6.4974  -2.5349   3.7756   7.0416   7.1979

          k = 0.1423 0.2465 0.0000 (  4493 PWs)   bands (ev):

   -22.6030 -10.7888 -10.4265  -9.6637   0.7440   1.5427   2.3477   2.6910

          k = 0.1423 0.3287 0.0000 (  4487 PWs)   bands (ev):

   -21.8775 -12.1909 -10.5761  -9.5797   1.7486   2.1858   2.5655   3.3761

          k = 0.1423 0.4108 0.0000 (  4511 PWs)   bands (ev):

   -20.9570 -13.7942 -11.2560  -8.5368   0.4889   3.0338   3.8514   4.6938

          k = 0.1423 0.4930 0.0000 (  4519 PWs)   bands (ev):

   -19.8589 -15.4189 -11.7037  -7.3781  -1.1647   4.5809   5.1843   5.4024

          k = 0.1423 0.5752 0.0000 (  4509 PWs)   bands (ev):

   -18.6586 -16.9003 -11.9273  -6.3843  -2.4222   5.0525   6.4193   7.1080

          k = 0.2135 0.3698 0.0000 (  4489 PWs)   bands (ev):

   -21.0591 -13.2067 -11.7611  -8.6420   0.7694   2.8927   3.6932   4.5508

          k = 0.2135 0.4519 0.0000 (  4501 PWs)   bands (ev):

   -20.0565 -14.5000 -12.5868  -7.5346  -0.7290   4.3109   5.0750   6.0152

          k = 0.2135 0.5341 0.0000 (  4499 PWs)   bands (ev):

   -18.9018 -15.9402 -13.0139  -6.3828  -2.1391   5.9789   6.5209   6.8506

          k = 0.2135 0.6163 0.0000 (  4500 PWs)   bands (ev):

   -17.9541 -16.9991 -13.1475  -5.7238  -2.8890   6.7701   7.1734   7.7528

          k = 0.2846 0.4930 0.0000 (  4487 PWs)   bands (ev):

   -18.9915 -15.2799 -13.7260  -6.3949  -1.9917   5.8434   6.2857   7.5770

          k = 0.2846 0.5752 0.0000 (  4494 PWs)   bands (ev):

   -17.8413 -16.3382 -14.2713  -5.3005  -3.1435   6.6428   7.5543   8.5175

          k = 0.3558 0.6163 0.0000 (  4485 PWs)   bands (ev):

   -16.8770 -16.8770 -14.9050  -4.2012  -4.2012   6.4438   8.7790   8.7790

     the Fermi energy is    -4.2012 ev

!    total energy              =     -22.79071349 Ry
     estimated scf accuracy    <          1.4E-11 Ry
     smearing contrib. (-TS)   =      -0.00005015 Ry
     internal energy E=F+TS    =     -22.79066334 Ry

     The total energy is F=E-TS. E is the sum of the following terms:
     one-electron contribution =    -390.54978500 Ry
     hartree contribution      =     195.90307026 Ry
     xc contribution           =      -7.03053269 Ry
     ewald contribution        =     178.88658410 Ry

     convergence has been achieved in   7 iterations

     Forces acting on atoms (cartesian axes, Ry/au):

     atom    1 type  1   force =     0.00000000    0.00000000    0.00000000
     atom    2 type  1   force =     0.00000000    0.00000000    0.00000000

     Total force =     0.000000     Total SCF correction =     0.000000


     Computing stress (Cartesian axis) and pressure

          total   stress  (Ry/bohr**3)                   (kbar)     P=       -9.62
  -0.00004358  -0.00000000  -0.00000000           -6.41       -0.00       -0.00
  -0.00000000  -0.00004358  -0.00000000           -0.00       -6.41       -0.00
   0.00000000   0.00000000  -0.00010902            0.00        0.00      -16.04


     Writing output data file ./work/LiC495.save/
 
     init_run     :      0.13s CPU      0.15s WALL (       2 calls)
     electrons    :     11.67s CPU     12.72s WALL (       9 calls)
     update_pot   :      0.10s CPU      0.10s WALL (       7 calls)
     forces       :      0.07s CPU      0.08s WALL (       9 calls)
     stress       :      0.27s CPU      0.28s WALL (       9 calls)

     Called by init_run:
     wfcinit      :      0.09s CPU      0.10s WALL (       2 calls)
     potinit      :      0.02s CPU      0.02s WALL (       2 calls)
     hinit0       :      0.01s CPU      0.01s WALL (       2 calls)

     Called by electrons:
     c_bands      :     10.22s CPU     10.97s WALL (      69 calls)
     sum_band     :      1.28s CPU      1.38s WALL (      69 calls)
     v_of_rho     :      0.13s CPU      0.15s WALL (      75 calls)
     mix_rho      :      0.02s CPU      0.02s WALL (      69 calls)

     Called by c_bands:
     init_us_2    :      0.09s CPU      0.10s WALL (    4266 calls)
     cegterg      :      9.98s CPU     10.69s WALL (    1867 calls)

     Called by *egterg:
     cdiaghg      :      0.92s CPU      0.99s WALL (   10236 calls)
     h_psi        :      8.40s CPU      9.00s WALL (   10564 calls)
     g_psi        :      0.03s CPU      0.03s WALL (    8643 calls)

     Called by h_psi:
     h_psi:calbec :      0.31s CPU      0.33s WALL (   10564 calls)
     vloc_psi     :      7.92s CPU      8.48s WALL (   10564 calls)
     add_vuspsi   :      0.08s CPU      0.09s WALL (   10564 calls)

     General routines
     calbec       :      0.34s CPU      0.37s WALL (   11779 calls)
     fft          :      0.12s CPU      0.13s WALL (     823 calls)
     ffts         :      0.01s CPU      0.01s WALL (      69 calls)
     fftw         :      8.61s CPU      9.22s WALL (  120942 calls)
 
     Parallel routines
     fft_scatt_xy :      0.56s CPU      0.60s WALL (  121834 calls)
     fft_scatt_yz :      5.08s CPU      5.43s WALL (  121834 calls)
 
     PWSCF        :     12.34s CPU     13.69s WALL

 
   This run was terminated on:  14:20:40  19Jan2024            

=------------------------------------------------------------------------------=
   JOB DONE.
=------------------------------------------------------------------------------=
