
     Program PWSCF v.6.7MaX starts on 19Jan2024 at 14:15:32 

     This program is part of the open-source Quantum ESPRESSO suite
     for quantum simulation of materials; please cite
         "P. Giannozzi et al., J. Phys.:Condens. Matter 21 395502 (2009);
         "P. Giannozzi et al., J. Phys.:Condens. Matter 29 465901 (2017);
          URL http://www.quantum-espresso.org", 
     in publications or presentations arising from this work. More details at
     http://www.quantum-espresso.org/quote

     Parallel version (MPI), running on    32 processors

     MPI processes distributed on     1 nodes
     R & G space division:  proc/nbgrp/npool/nimage =      32
     Waiting for input...
     Reading input from standard input

     Current dimensions of program PWSCF are:
     Max number of different atomic species (ntypx) = 10
     Max number of k-points (npk) =  40000
     Max angular momentum in pseudopotentials (lmaxx) =  3
     Message from routine read_pp_mesh:
     mesh size missing, using the one in header

     Subspace diagonalization in iterative solution of the eigenvalue problem:
     a serial algorithm will be used

 
     Parallelization info
     --------------------
     sticks:   dense  smooth     PW     G-vecs:    dense   smooth      PW
     Min           9       9      3                 1157     1157     179
     Max          10      10      4                 1204     1204     223
     Sum         313     313     97                37899    37899    6643
 


     bravais-lattice index     =            4
     lattice parameter (alat)  =       4.7500  a.u.
     unit-cell volume          =     791.3578 (a.u.)^3
     number of atoms/cell      =            2
     number of atomic types    =            1
     number of electrons       =         8.00
     number of Kohn-Sham states=            8
     kinetic-energy cutoff     =      50.0000  Ry
     charge density cutoff     =     200.0000  Ry
     scf convergence threshold =      1.0E-08
     mixing beta               =       0.7000
     number of iterations used =            8  plain     mixing
     energy convergence thresh.=      1.0E-04
     force convergence thresh. =      1.0E-08
     press convergence thresh. =      1.0E-03
     Exchange-correlation= PBE
                           (   1   4   3   4   0   0   0)
     nstep                     =           50


     celldm(1)=   4.750000  celldm(2)=   0.000000  celldm(3)=   8.526316
     celldm(4)=   0.000000  celldm(5)=   0.000000  celldm(6)=   0.000000

     crystal axes: (cart. coord. in units of alat)
               a(1) = (   1.000000   0.000000   0.000000 )  
               a(2) = (  -0.500000   0.866025   0.000000 )  
               a(3) = (   0.000000   0.000000   8.526316 )  

     reciprocal axes: (cart. coord. in units 2 pi/alat)
               b(1) = (  1.000000  0.577350  0.000000 )  
               b(2) = (  0.000000  1.154701  0.000000 )  
               b(3) = (  0.000000  0.000000  0.117284 )  


     PseudoPot. # 1 for C  read from file:
     /home/yhkim/qe-6.7/pseudo/ONCV1/1.2/C_ONCV_PBE-1.2.upf
     MD5 check sum: 1a5f83a7b1f58d24996abe00ed223ac6
     Pseudo is Norm-conserving, Zval =  4.0
     Generated using ONCVPSP code by D. R. Hamann
     Using radial grid of  602 points,  4 beta functions with: 
                l(1) =   0
                l(2) =   0
                l(3) =   1
                l(4) =   1

     atomic species   valence    mass     pseudopotential
        C              4.00    12.01070     C ( 1.00)

     24 Sym. Ops., with inversion, found



   Cartesian axes

     site n.     atom                  positions (alat units)
         1           C   tau(   1) = (  -0.0000000   0.5773503   4.2631579  )
         2           C   tau(   2) = (   0.5000000   0.2886751   4.2631579  )

     number of k points=    27  Methfessel-Paxton smearing, width (Ry)=  0.0100
                       cart. coord. in units 2pi/alat
        k(    1) = (   0.0000000   0.0000000   0.0000000), wk =   0.0088889
        k(    2) = (   0.0000000   0.0769800   0.0000000), wk =   0.0533333
        k(    3) = (   0.0000000   0.1539601   0.0000000), wk =   0.0533333
        k(    4) = (   0.0000000   0.2309401   0.0000000), wk =   0.0533333
        k(    5) = (   0.0000000   0.3079201   0.0000000), wk =   0.0533333
        k(    6) = (   0.0000000   0.3849002   0.0000000), wk =   0.0533333
        k(    7) = (   0.0000000   0.4618802   0.0000000), wk =   0.0533333
        k(    8) = (   0.0000000   0.5388603   0.0000000), wk =   0.0533333
        k(    9) = (   0.0666667   0.1154701   0.0000000), wk =   0.0533333
        k(   10) = (   0.0666667   0.1924501   0.0000000), wk =   0.1066667
        k(   11) = (   0.0666667   0.2694301   0.0000000), wk =   0.1066667
        k(   12) = (   0.0666667   0.3464102   0.0000000), wk =   0.1066667
        k(   13) = (   0.0666667   0.4233902   0.0000000), wk =   0.1066667
        k(   14) = (   0.0666667   0.5003702   0.0000000), wk =   0.1066667
        k(   15) = (   0.0666667   0.5773503   0.0000000), wk =   0.0533333
        k(   16) = (   0.1333333   0.2309401   0.0000000), wk =   0.0533333
        k(   17) = (   0.1333333   0.3079201   0.0000000), wk =   0.1066667
        k(   18) = (   0.1333333   0.3849002   0.0000000), wk =   0.1066667
        k(   19) = (   0.1333333   0.4618802   0.0000000), wk =   0.1066667
        k(   20) = (   0.1333333   0.5388603   0.0000000), wk =   0.1066667
        k(   21) = (   0.2000000   0.3464102   0.0000000), wk =   0.0533333
        k(   22) = (   0.2000000   0.4233902   0.0000000), wk =   0.1066667
        k(   23) = (   0.2000000   0.5003702   0.0000000), wk =   0.1066667
        k(   24) = (   0.2000000   0.5773503   0.0000000), wk =   0.0533333
        k(   25) = (   0.2666667   0.4618802   0.0000000), wk =   0.0533333
        k(   26) = (   0.2666667   0.5388603   0.0000000), wk =   0.1066667
        k(   27) = (   0.3333333   0.5773503   0.0000000), wk =   0.0177778

     Dense  grid:    37899 G-vectors     FFT dimensions: (  24,  24, 192)

     Estimated max dynamical RAM per process >       2.01 MB

     Estimated total dynamical RAM >      64.32 MB
 ----2D----2D----2D----2D----2D----2D----2D----2D----2D----2D----2D----2D
  The code is running with the 2D cutoff
  Please refer to:
  Sohier, T., Calandra, M., & Mauri, F. (2017), 
  Density functional perturbation theory for gated two-dimensional heterostructu
 res:
  Theoretical developments and application to flexural phonons in graphene.
  Physical Review B, 96(7), 75448. https://doi.org/10.1103/PhysRevB.96.075448
 ----2D----2D----2D----2D----2D----2D----2D----2D----2D----2D----2D----2D

     Initial potential from superposition of free atoms

     starting charge    7.98607, renormalised to    8.00000

     negative rho (up, down):  1.188E-04 0.000E+00
     Starting wfcs are random

     total cpu time spent up to now is        0.1 secs

     Self-consistent Calculation

     iteration #  1     ecut=    50.00 Ry     beta= 0.70
     Davidson diagonalization with overlap
     ethr =  1.00E-02,  avg # of iterations = 11.9

     negative rho (up, down):  6.493E-08 0.000E+00

     total cpu time spent up to now is        0.5 secs

     total energy              =     -22.76309882 Ry
     estimated scf accuracy    <       0.13986093 Ry

     iteration #  2     ecut=    50.00 Ry     beta= 0.70
     Davidson diagonalization with overlap
     ethr =  1.75E-03,  avg # of iterations =  2.1

     total cpu time spent up to now is        0.7 secs

     total energy              =     -22.78632858 Ry
     estimated scf accuracy    <       0.00215869 Ry

     iteration #  3     ecut=    50.00 Ry     beta= 0.70
     Davidson diagonalization with overlap
     c_bands:  1 eigenvalues not converged
     ethr =  2.70E-05,  avg # of iterations = 10.7

     total cpu time spent up to now is        0.9 secs

     total energy              =     -22.78758310 Ry
     estimated scf accuracy    <       0.00013119 Ry

     iteration #  4     ecut=    50.00 Ry     beta= 0.70
     Davidson diagonalization with overlap
     c_bands:  1 eigenvalues not converged
     c_bands:  1 eigenvalues not converged
     ethr =  1.64E-06,  avg # of iterations =  7.1

     total cpu time spent up to now is        1.2 secs

     total energy              =     -22.78762455 Ry
     estimated scf accuracy    <       0.00000211 Ry

     iteration #  5     ecut=    50.00 Ry     beta= 0.70
     Davidson diagonalization with overlap
     ethr =  2.64E-08,  avg # of iterations =  3.9

     total cpu time spent up to now is        1.3 secs

     total energy              =     -22.78762750 Ry
     estimated scf accuracy    <       0.00000009 Ry

     iteration #  6     ecut=    50.00 Ry     beta= 0.70
     Davidson diagonalization with overlap
     ethr =  1.06E-09,  avg # of iterations =  2.2

     total cpu time spent up to now is        1.4 secs

     End of self-consistent calculation

          k = 0.0000 0.0000 0.0000 (  4795 PWs)   bands (ev):

   -23.4945 -11.6526  -7.5043  -7.5043  -0.9682  -0.2012   0.5914   0.9456

          k = 0.0000 0.0770 0.0000 (  4755 PWs)   bands (ev):

   -23.3932 -11.5326  -7.9191  -7.7133  -0.8309  -0.0623   0.7315   1.0850

          k = 0.0000 0.1540 0.0000 (  4759 PWs)   bands (ev):

   -23.0901 -11.1752  -9.0199  -8.2437  -0.4191   0.3541   1.1516   1.5025

          k = 0.0000 0.2309 0.0000 (  4757 PWs)   bands (ev):

   -22.5873 -10.5874 -10.5238  -8.9086   0.2666   1.0453   1.8515   2.1955

          k = 0.0000 0.3079 0.0000 (  4737 PWs)   bands (ev):

   -21.8892 -12.2000  -9.7844  -9.5578   1.2237   1.8864   2.1715   2.8224

          k = 0.0000 0.3849 0.0000 (  4709 PWs)   bands (ev):

   -21.0039 -13.9031 -10.1004  -8.7980   0.2868   2.4291   2.7845   3.2726

          k = 0.0000 0.4619 0.0000 (  4710 PWs)   bands (ev):

   -19.9510 -15.5398 -10.4830  -7.7126  -1.3559   2.5303   3.9582   4.7765

          k = 0.0000 0.5389 0.0000 (  4730 PWs)   bands (ev):

   -18.8259 -16.9657 -10.6815  -6.8125  -2.5560   2.4177   5.6969   6.5265

          k = 0.0667 0.1155 0.0000 (  4755 PWs)   bands (ev):

   -23.1910 -11.2935  -8.6298  -8.1306  -0.5563   0.2154   1.0116   1.3634

          k = 0.0667 0.1925 0.0000 (  4762 PWs)   bands (ev):

   -22.7880 -10.8208  -9.8472  -8.8167  -0.0073   0.7697   1.5718   1.9195

          k = 0.0667 0.2694 0.0000 (  4744 PWs)   bands (ev):

   -22.1875 -11.3791 -10.1242  -9.5335   0.8148   1.5935   2.4115   2.6904

          k = 0.0667 0.3464 0.0000 (  4717 PWs)   bands (ev):

   -21.3956 -13.0382 -10.1623  -9.2251   1.0729   1.9062   2.7183   3.3402

          k = 0.0667 0.4234 0.0000 (  4706 PWs)   bands (ev):

   -20.4244 -14.6947 -10.6409  -8.1736  -0.6091   3.0514   3.3132   4.0847

          k = 0.0667 0.5004 0.0000 (  4724 PWs)   bands (ev):

   -19.3109 -16.2429 -10.9386  -7.1179  -2.0808   2.9167   4.8963   5.7055

          k = 0.0667 0.5774 0.0000 (  4728 PWs)   bands (ev):

   -18.4478 -17.2544 -11.0396  -6.5660  -2.7774   2.8593   6.6648   6.8274

          k = 0.1333 0.2309 0.0000 (  4743 PWs)   bands (ev):

   -22.2873 -10.9265 -10.2381  -9.7232   0.6785   1.4605   2.2724   2.6146

          k = 0.1333 0.3079 0.0000 (  4722 PWs)   bands (ev):

   -21.5927 -12.2772 -10.5863  -9.4418   1.5763   1.6361   2.4267   3.2520

          k = 0.1333 0.3849 0.0000 (  4716 PWs)   bands (ev):

   -20.7134 -13.8091 -11.2353  -8.4628   0.0034   2.8603   3.6536   4.4129

          k = 0.1333 0.4619 0.0000 (  4712 PWs)   bands (ev):

   -19.6694 -15.3548 -11.6652  -7.3774  -1.5281   4.1761   4.3946   5.1238

          k = 0.1333 0.5389 0.0000 (  4720 PWs)   bands (ev):

   -18.5570 -16.7359 -11.8797  -6.4557  -2.6912   4.0976   6.0778   6.7239

          k = 0.2000 0.3464 0.0000 (  4713 PWs)   bands (ev):

   -20.8103 -13.2813 -11.6921  -8.5600   0.2514   2.7262   3.5043   4.3714

          k = 0.2000 0.4234 0.0000 (  4710 PWs)   bands (ev):

   -19.8544 -14.5182 -12.4816  -7.5229  -1.1441   4.0762   4.8130   5.7591

          k = 0.2000 0.5004 0.0000 (  4710 PWs)   bands (ev):

   -18.7641 -15.8708 -12.9024  -6.4469  -2.4541   5.6309   5.8714   6.1707

          k = 0.2000 0.5774 0.0000 (  4712 PWs)   bands (ev):

   -17.9182 -16.8189 -13.0343  -5.8364  -3.1471   5.7574   6.7791   7.3146

          k = 0.2667 0.4619 0.0000 (  4709 PWs)   bands (ev):

   -18.8440 -15.3046 -13.5282  -6.4570  -2.3293   5.5310   5.9522   7.2441

          k = 0.2667 0.5389 0.0000 (  4709 PWs)   bands (ev):

   -17.7708 -16.2946 -14.0465  -5.4350  -3.4051   6.3063   7.1102   7.5169

          k = 0.3333 0.5774 0.0000 (  4722 PWs)   bands (ev):

   -16.8652 -16.8652 -14.5831  -4.4046  -4.4046   6.1348   8.0564   8.0564

     the Fermi energy is    -4.4046 ev

!    total energy              =     -22.78762752 Ry
     estimated scf accuracy    <          1.6E-09 Ry
     smearing contrib. (-TS)   =      -0.00005015 Ry
     internal energy E=F+TS    =     -22.78757737 Ry

     The total energy is F=E-TS. E is the sum of the following terms:
     one-electron contribution =    -372.07313043 Ry
     hartree contribution      =     186.61831387 Ry
     xc contribution           =      -6.92878575 Ry
     ewald contribution        =     169.59602494 Ry

     convergence has been achieved in   6 iterations

     Forces acting on atoms (cartesian axes, Ry/au):

     atom    1 type  1   force =     0.00000000    0.00000000    0.00000000
     atom    2 type  1   force =     0.00000000    0.00000000    0.00000000

     Total force =     0.000000     Total SCF correction =     0.000000


     Computing stress (Cartesian axis) and pressure

          total   stress  (Ry/bohr**3)                   (kbar)     P=      -37.13
  -0.00032779   0.00000000   0.00000000          -48.22        0.00        0.00
   0.00000000  -0.00032779   0.00000000            0.00      -48.22        0.00
   0.00000000   0.00000000  -0.00010172            0.00        0.00      -14.96


     BFGS Geometry Optimization
     Energy error            =      0.0E+00
     Gradient error          =      0.0E+00
     Cell gradient error     =      3.3E-04


     number of scf cycles    =   1
     number of bfgs steps    =   0

     enthalpy new            =     -22.7876275231 Ry

     new trust radius        =       0.0461052671 bohr
     new conv_thr            =       0.0000000100 Ry

     new unit-cell volume =    778.44101 a.u.^3 (   115.35306 Ang^3 )
     density =      0.34579 g/cm^3

CELL_PARAMETERS (alat=  4.75000000)
   0.991805280   0.000000000   0.000000000
  -0.495902640   0.858928568   0.000000000
   0.000000000   0.000000000   8.526315789

ATOMIC_POSITIONS (crystal)
C             0.3333333333        0.6666666667        0.5000000000
C             0.6666666667        0.3333333333        0.5000000000



     Writing output data file ./work/LiC475.save/
     NEW-OLD atomic charge density approx. for the potential

     negative rho (up, down):  4.417E-06 0.000E+00
     extrapolated charge    7.86749, renormalised to    8.00000

     total cpu time spent up to now is        1.5 secs

     Self-consistent Calculation

     iteration #  1     ecut=    50.00 Ry     beta= 0.70
     Davidson diagonalization with overlap
     c_bands:  1 eigenvalues not converged
     c_bands:  1 eigenvalues not converged
     c_bands:  3 eigenvalues not converged
     c_bands:  1 eigenvalues not converged
     c_bands:  1 eigenvalues not converged
     ethr =  1.00E-06,  avg # of iterations = 14.9

     negative rho (up, down):  2.396E-07 0.000E+00

     total cpu time spent up to now is        1.9 secs

     total energy              =     -22.78275495 Ry
     estimated scf accuracy    <       0.00446230 Ry

     iteration #  2     ecut=    50.00 Ry     beta= 0.70
     Davidson diagonalization with overlap
     ethr =  5.58E-05,  avg # of iterations =  9.9

     negative rho (up, down):  3.684E-08 0.000E+00

     total cpu time spent up to now is        2.2 secs

     total energy              =     -22.79147449 Ry
     estimated scf accuracy    <       0.00409203 Ry

     iteration #  3     ecut=    50.00 Ry     beta= 0.70
     Davidson diagonalization with overlap
     ethr =  5.12E-05,  avg # of iterations =  1.0

     total cpu time spent up to now is        2.3 secs

     total energy              =     -22.79116437 Ry
     estimated scf accuracy    <       0.00091453 Ry

     iteration #  4     ecut=    50.00 Ry     beta= 0.70
     Davidson diagonalization with overlap
     ethr =  1.14E-05,  avg # of iterations =  2.7

     total cpu time spent up to now is        2.4 secs

     total energy              =     -22.79126113 Ry
     estimated scf accuracy    <       0.00005188 Ry

     iteration #  5     ecut=    50.00 Ry     beta= 0.70
     Davidson diagonalization with overlap
     ethr =  6.48E-07,  avg # of iterations =  3.4

     total cpu time spent up to now is        2.6 secs

     total energy              =     -22.79126830 Ry
     estimated scf accuracy    <       0.00005100 Ry

     iteration #  6     ecut=    50.00 Ry     beta= 0.70
     Davidson diagonalization with overlap
     ethr =  6.37E-07,  avg # of iterations =  1.0

     total cpu time spent up to now is        2.7 secs

     total energy              =     -22.79127119 Ry
     estimated scf accuracy    <       0.00006007 Ry

     iteration #  7     ecut=    50.00 Ry     beta= 0.70
     Davidson diagonalization with overlap
     ethr =  6.37E-07,  avg # of iterations =  1.6

     total cpu time spent up to now is        2.8 secs

     total energy              =     -22.79122993 Ry
     estimated scf accuracy    <       0.00010833 Ry

     iteration #  8     ecut=    50.00 Ry     beta= 0.70
     Davidson diagonalization with overlap
     ethr =  6.37E-07,  avg # of iterations =  2.0

     total cpu time spent up to now is        2.9 secs

     total energy              =     -22.79124106 Ry
     estimated scf accuracy    <       0.00000259 Ry

     iteration #  9     ecut=    50.00 Ry     beta= 0.70
     Davidson diagonalization with overlap
     ethr =  3.24E-08,  avg # of iterations =  2.0

     total cpu time spent up to now is        3.0 secs

     total energy              =     -22.79124043 Ry
     estimated scf accuracy    <       0.00000825 Ry

     iteration # 10     ecut=    50.00 Ry     beta= 0.70
     Davidson diagonalization with overlap
     ethr =  3.24E-08,  avg # of iterations =  2.0

     total cpu time spent up to now is        3.2 secs

     total energy              =     -22.79124090 Ry
     estimated scf accuracy    <       0.00000009 Ry

     iteration # 11     ecut=    50.00 Ry     beta= 0.70
     Davidson diagonalization with overlap
     ethr =  1.11E-09,  avg # of iterations =  1.2

     total cpu time spent up to now is        3.3 secs

     total energy              =     -22.79124086 Ry
     estimated scf accuracy    <       0.00000009 Ry

     iteration # 12     ecut=    50.00 Ry     beta= 0.70
     Davidson diagonalization with overlap
     ethr =  1.11E-09,  avg # of iterations =  1.2

     total cpu time spent up to now is        3.4 secs

     total energy              =     -22.79124087 Ry
     estimated scf accuracy    <       0.00000002 Ry

     iteration # 13     ecut=    50.00 Ry     beta= 0.70
     Davidson diagonalization with overlap
     ethr =  2.66E-10,  avg # of iterations =  1.3

     total cpu time spent up to now is        3.5 secs

     total energy              =     -22.79124087 Ry
     estimated scf accuracy    <       0.00000002 Ry

     iteration # 14     ecut=    50.00 Ry     beta= 0.70
     Davidson diagonalization with overlap
     ethr =  2.01E-10,  avg # of iterations =  1.0

     total cpu time spent up to now is        3.6 secs

     End of self-consistent calculation

          k = 0.0000 0.0000 0.0000 (  4795 PWs)   bands (ev):

   -23.6192 -11.7454  -7.4335  -7.4335  -0.9728  -0.2012   0.5905   0.9448

          k =-0.0000 0.0776 0.0000 (  4755 PWs)   bands (ev):

   -23.5163 -11.6228  -7.8514  -7.6480  -0.8333  -0.0598   0.7329   1.0865

          k =-0.0000 0.1552 0.0000 (  4759 PWs)   bands (ev):

   -23.2087 -11.2581  -8.9623  -8.1919  -0.4148   0.3636   1.1600   1.5111

          k =-0.0000 0.2328 0.0000 (  4757 PWs)   bands (ev):

   -22.6984 -10.6581 -10.4829  -8.8727   0.2821   1.0668   1.8715   2.2162

          k =-0.0000 0.3105 0.0000 (  4737 PWs)   bands (ev):

   -21.9896 -12.1804  -9.8381  -9.5368   1.2550   1.9775   2.3302   2.8631

          k =-0.0000 0.3881 0.0000 (  4709 PWs)   bands (ev):

   -21.0904 -13.9075 -10.0914  -8.8301   0.4509   2.4896   3.0719   3.3338

          k =-0.0000 0.4657 0.0000 (  4710 PWs)   bands (ev):

   -20.0188 -15.5699 -10.4821  -7.7195  -1.2360   2.8307   4.0380   4.8640

          k =-0.0000 0.5433 0.0000 (  4730 PWs)   bands (ev):

   -18.8628 -17.0304 -10.6847  -6.7960  -2.4695   2.7231   5.8044   6.6468

          k = 0.0672 0.1164 0.0000 (  4755 PWs)   bands (ev):

   -23.3111 -11.3789  -8.5674  -8.0762  -0.5543   0.2226   1.0176   1.3697

          k = 0.0672 0.1940 0.0000 (  4762 PWs)   bands (ev):

   -22.9021 -10.8964  -9.7963  -8.7786   0.0037   0.7864   1.5872   1.9352

          k = 0.0672 0.2717 0.0000 (  4744 PWs)   bands (ev):

   -22.2926 -11.3468 -10.1852  -9.5110   0.8393   1.6253   2.4409   2.7618

          k = 0.0672 0.3493 0.0000 (  4717 PWs)   bands (ev):

   -21.4884 -13.0286 -10.1526  -9.2668   1.2597   1.9490   2.7708   3.5545

          k = 0.0672 0.4269 0.0000 (  4706 PWs)   bands (ev):

   -20.5012 -14.7098 -10.6407  -8.1917  -0.4669   3.2609   3.4741   4.1599

          k = 0.0672 0.5045 0.0000 (  4724 PWs)   bands (ev):

   -19.3651 -16.2861 -10.9443  -7.1103  -1.9785   3.2251   4.9908   5.8105

          k = 0.0672 0.5821 0.0000 (  4728 PWs)   bands (ev):

   -18.4644 -17.3371 -11.0472  -6.5431  -2.6953   3.1698   6.7922   6.9526

          k = 0.1344 0.2328 0.0000 (  4743 PWs)   bands (ev):

   -22.3939 -10.8829 -10.3016  -9.7069   0.7008   1.4890   2.2993   2.6407

          k = 0.1344 0.3105 0.0000 (  4722 PWs)   bands (ev):

   -21.6887 -12.2496 -10.5869  -9.4883   1.6743   1.7820   2.4732   3.2954

          k = 0.1344 0.3881 0.0000 (  4716 PWs)   bands (ev):

   -20.7954 -13.8049 -11.2456  -8.4878   0.1674   2.9191   3.7212   4.5621

          k = 0.1344 0.4657 0.0000 (  4712 PWs)   bands (ev):

   -19.7329 -15.3769 -11.6815  -7.3773  -1.4050   4.3808   4.5948   5.2187

          k = 0.1344 0.5433 0.0000 (  4720 PWs)   bands (ev):

   -18.5907 -16.7919 -11.8990  -6.4319  -2.6002   4.4211   6.1930   6.8540

          k = 0.2017 0.3493 0.0000 (  4713 PWs)   bands (ev):

   -20.8940 -13.2575 -11.7191  -8.5874   0.4256   2.7826   3.5690   4.4336

          k = 0.2017 0.4269 0.0000 (  4710 PWs)   bands (ev):

   -19.9222 -14.5128 -12.5209  -7.5269  -1.0046   4.1557   4.9020   5.8496

          k = 0.2017 0.5045 0.0000 (  4710 PWs)   bands (ev):

   -18.8101 -15.8943 -12.9441  -6.4252  -2.3482   5.7585   6.1930   6.2892

          k = 0.2017 0.5821 0.0000 (  4712 PWs)   bands (ev):

   -17.9310 -16.8784 -13.0764  -5.7986  -3.0601   6.1000   6.9120   7.4634

          k = 0.2689 0.4657 0.0000 (  4709 PWs)   bands (ev):

   -18.8933 -15.2972 -13.5982  -6.4364  -2.2158   5.6368   6.0649   7.3553

          k = 0.2689 0.5433 0.0000 (  4709 PWs)   bands (ev):

   -17.7943 -16.3091 -14.1259  -5.3899  -3.3168   6.4200   7.2667   7.8527

          k = 0.3361 0.5821 0.0000 (  4722 PWs)   bands (ev):

   -16.8701 -16.8701 -14.6932  -4.3366  -4.3366   6.2394   8.3094   8.3094

     the Fermi energy is    -4.3366 ev

!    total energy              =     -22.79124087 Ry
     estimated scf accuracy    <          1.6E-09 Ry
     smearing contrib. (-TS)   =      -0.00005015 Ry
     internal energy E=F+TS    =     -22.79119072 Ry

     The total energy is F=E-TS. E is the sum of the following terms:
     one-electron contribution =    -378.31643702 Ry
     hartree contribution      =     189.75548746 Ry
     xc contribution           =      -6.96341550 Ry
     ewald contribution        =     172.73317435 Ry

     convergence has been achieved in  14 iterations

     Forces acting on atoms (cartesian axes, Ry/au):

     atom    1 type  1   force =    -0.00000000   -0.00000000    0.00000000
     atom    2 type  1   force =     0.00000000    0.00000000    0.00000000

     Total force =     0.000000     Total SCF correction =     0.000000


     Computing stress (Cartesian axis) and pressure

          total   stress  (Ry/bohr**3)                   (kbar)     P=      -27.54
  -0.00023026  -0.00000000   0.00000000          -33.87       -0.00        0.00
  -0.00000000  -0.00023026  -0.00000000           -0.00      -33.87       -0.00
  -0.00000000   0.00000000  -0.00010108           -0.00        0.00      -14.87

     Energy error            =      3.6E-03
     Gradient error          =      1.7E-26
     Cell gradient error     =      2.3E-04


     number of scf cycles    =   2
     number of bfgs steps    =   1

     enthalpy old            =     -22.7876275231 Ry
     enthalpy new            =     -22.7912408653 Ry

     CASE: enthalpy_new < enthalpy_old

     new trust radius        =       0.0507157938 bohr
     new conv_thr            =            1.0E-10 Ry

     new unit-cell volume =    764.35532 a.u.^3 (   113.26577 Ang^3 )
     density =      0.35217 g/cm^3

CELL_PARAMETERS (alat=  4.75000000)
   0.982791088  -0.000000000   0.000000000
  -0.491395544   0.851122049   0.000000000
   0.000000000   0.000000000   8.526315789

ATOMIC_POSITIONS (crystal)
C             0.3333333333        0.6666666667        0.5000000000
C             0.6666666667        0.3333333333        0.5000000000



     Writing output data file ./work/LiC475.save/
     NEW-OLD atomic charge density approx. for the potential

     negative rho (up, down):  9.809E-07 0.000E+00
     extrapolated charge    7.85283, renormalised to    8.00000

     total cpu time spent up to now is        3.7 secs

     Self-consistent Calculation

     iteration #  1     ecut=    50.00 Ry     beta= 0.70
     Davidson diagonalization with overlap
     c_bands:  1 eigenvalues not converged
     c_bands:  1 eigenvalues not converged
     c_bands:  3 eigenvalues not converged
     c_bands:  1 eigenvalues not converged
     c_bands:  1 eigenvalues not converged
     ethr =  1.00E-06,  avg # of iterations = 15.4

     total cpu time spent up to now is        4.1 secs

     total energy              =     -22.78323349 Ry
     estimated scf accuracy    <       0.00547138 Ry

     iteration #  2     ecut=    50.00 Ry     beta= 0.70
     Davidson diagonalization with overlap
     ethr =  6.84E-05,  avg # of iterations =  9.6

     total cpu time spent up to now is        4.4 secs

     total energy              =     -22.79396271 Ry
     estimated scf accuracy    <       0.00505917 Ry

     iteration #  3     ecut=    50.00 Ry     beta= 0.70
     Davidson diagonalization with overlap
     ethr =  6.32E-05,  avg # of iterations =  1.4

     total cpu time spent up to now is        4.5 secs

     total energy              =     -22.79356275 Ry
     estimated scf accuracy    <       0.00112763 Ry

     iteration #  4     ecut=    50.00 Ry     beta= 0.70
     Davidson diagonalization with overlap
     ethr =  1.41E-05,  avg # of iterations =  2.9

     total cpu time spent up to now is        4.6 secs

     total energy              =     -22.79369330 Ry
     estimated scf accuracy    <       0.00004591 Ry

     iteration #  5     ecut=    50.00 Ry     beta= 0.70
     Davidson diagonalization with overlap
     ethr =  5.74E-07,  avg # of iterations =  3.3

     total cpu time spent up to now is        4.7 secs

     total energy              =     -22.79370232 Ry
     estimated scf accuracy    <       0.00004465 Ry

     iteration #  6     ecut=    50.00 Ry     beta= 0.70
     Davidson diagonalization with overlap
     ethr =  5.58E-07,  avg # of iterations =  1.0

     total cpu time spent up to now is        4.8 secs

     total energy              =     -22.79373644 Ry
     estimated scf accuracy    <       0.00005626 Ry

     iteration #  7     ecut=    50.00 Ry     beta= 0.70
     Davidson diagonalization with overlap
     ethr =  5.58E-07,  avg # of iterations =  2.0

     total cpu time spent up to now is        5.0 secs

     total energy              =     -22.79366479 Ry
     estimated scf accuracy    <       0.00019940 Ry

     iteration #  8     ecut=    50.00 Ry     beta= 0.70
     Davidson diagonalization with overlap
     ethr =  5.58E-07,  avg # of iterations =  2.0

     total cpu time spent up to now is        5.1 secs

     total energy              =     -22.79367428 Ry
     estimated scf accuracy    <       0.00001735 Ry

     iteration #  9     ecut=    50.00 Ry     beta= 0.70
     Davidson diagonalization with overlap
     ethr =  2.17E-07,  avg # of iterations =  2.0

     total cpu time spent up to now is        5.2 secs

     total energy              =     -22.79367636 Ry
     estimated scf accuracy    <       0.00000730 Ry

     iteration # 10     ecut=    50.00 Ry     beta= 0.70
     Davidson diagonalization with overlap
     ethr =  9.12E-08,  avg # of iterations =  1.0

     total cpu time spent up to now is        5.3 secs

     total energy              =     -22.79367674 Ry
     estimated scf accuracy    <       0.00000008 Ry

     iteration # 11     ecut=    50.00 Ry     beta= 0.70
     Davidson diagonalization with overlap
     ethr =  1.06E-09,  avg # of iterations =  2.1

     total cpu time spent up to now is        5.5 secs

     total energy              =     -22.79367674 Ry
     estimated scf accuracy    <       0.00000004 Ry

     iteration # 12     ecut=    50.00 Ry     beta= 0.70
     Davidson diagonalization with overlap
     ethr =  5.32E-10,  avg # of iterations =  1.9

     total cpu time spent up to now is        5.6 secs

     total energy              =     -22.79367675 Ry
     estimated scf accuracy    <       0.00000004 Ry

     iteration # 13     ecut=    50.00 Ry     beta= 0.70
     Davidson diagonalization with overlap
     ethr =  5.30E-10,  avg # of iterations =  1.0

     total cpu time spent up to now is        5.7 secs

     total energy              =     -22.79367675 Ry
     estimated scf accuracy    <          6.8E-09 Ry

     iteration # 14     ecut=    50.00 Ry     beta= 0.70
     Davidson diagonalization with overlap
     ethr =  8.53E-11,  avg # of iterations =  1.1

     total cpu time spent up to now is        5.8 secs

     total energy              =     -22.79367675 Ry
     estimated scf accuracy    <          6.8E-10 Ry

     iteration # 15     ecut=    50.00 Ry     beta= 0.70
     Davidson diagonalization with overlap
     ethr =  8.52E-12,  avg # of iterations =  2.2

     total cpu time spent up to now is        5.9 secs

     total energy              =     -22.79367675 Ry
     estimated scf accuracy    <          3.7E-10 Ry

     iteration # 16     ecut=    50.00 Ry     beta= 0.70
     Davidson diagonalization with overlap
     ethr =  4.59E-12,  avg # of iterations =  1.0

     total cpu time spent up to now is        6.0 secs

     total energy              =     -22.79367675 Ry
     estimated scf accuracy    <          2.3E-10 Ry

     iteration # 17     ecut=    50.00 Ry     beta= 0.70
     Davidson diagonalization with overlap
     ethr =  2.89E-12,  avg # of iterations =  1.0

     total cpu time spent up to now is        6.1 secs

     End of self-consistent calculation

          k = 0.0000 0.0000 0.0000 (  4795 PWs)   bands (ev):

   -23.7576 -11.8496  -7.3510  -7.3510  -0.9779  -0.2009   0.5902   0.9444

          k = 0.0000 0.0783 0.0000 (  4755 PWs)   bands (ev):

   -23.6531 -11.7243  -7.7727  -7.5717  -0.8359  -0.0569   0.7352   1.0888

          k = 0.0000 0.1567 0.0000 (  4759 PWs)   bands (ev):

   -23.3405 -11.3513  -8.8953  -8.1310  -0.4098   0.3746   1.1702   1.5215

          k = 0.0000 0.2350 0.0000 (  4757 PWs)   bands (ev):

   -22.8218 -10.7376 -10.4351  -8.8299   0.2997   1.0912   1.8949   2.2402

          k = 0.0000 0.3133 0.0000 (  4737 PWs)   bands (ev):

   -22.1012 -12.1567  -9.8984  -9.5108   1.2906   2.0473   2.5412   2.9066

          k = 0.0000 0.3916 0.0000 (  4709 PWs)   bands (ev):

   -21.1864 -13.9107 -10.0789  -8.8660   0.6359   2.5523   3.4008   3.4031

          k = 0.0000 0.4700 0.0000 (  4710 PWs)   bands (ev):

   -20.0940 -15.6017 -10.4789  -7.7270  -1.1008   3.1682   4.1301   4.9627

          k = 0.0000 0.5483 0.0000 (  4730 PWs)   bands (ev):

   -18.9034 -17.1011 -10.6862  -6.7768  -2.3723   3.0682   5.9262   6.7825

          k = 0.0678 0.1175 0.0000 (  4755 PWs)   bands (ev):

   -23.4446 -11.4749  -8.4948  -8.0123  -0.5518   0.2309   1.0252   1.3774

          k = 0.0678 0.1958 0.0000 (  4762 PWs)   bands (ev):

   -23.0289 -10.9814  -9.7371  -8.7332   0.0163   0.8054   1.6053   1.9537

          k = 0.0678 0.2741 0.0000 (  4744 PWs)   bands (ev):

   -22.4092 -11.3087 -10.2537  -9.4831   0.8672   1.6609   2.4748   2.8052

          k = 0.0678 0.3525 0.0000 (  4717 PWs)   bands (ev):

   -21.5914 -13.0161 -10.1392  -9.3135   1.4701   1.9975   2.8306   3.6261

          k = 0.0678 0.4308 0.0000 (  4706 PWs)   bands (ev):

   -20.5863 -14.7250 -10.6381  -8.2118  -0.3064   3.3784   3.7742   4.2449

          k = 0.0678 0.5091 0.0000 (  4724 PWs)   bands (ev):

   -19.4251 -16.3327 -10.9483  -7.1012  -1.8633   3.5728   5.0981   5.9289

          k = 0.0678 0.5875 0.0000 (  4728 PWs)   bands (ev):

   -18.4804 -17.4298 -11.0535  -6.5167  -2.6031   3.5206   6.9360   7.0941

          k = 0.1357 0.2350 0.0000 (  4743 PWs)   bands (ev):

   -22.5123 -10.8321 -10.3728  -9.6861   0.7263   1.5215   2.3305   2.6726

          k = 0.1357 0.3133 0.0000 (  4722 PWs)   bands (ev):

   -21.7953 -12.2170 -10.5850  -9.5404   1.7176   2.0137   2.5270   3.3452

          k = 0.1357 0.3916 0.0000 (  4716 PWs)   bands (ev):

   -20.8863 -13.7988 -11.2546  -8.5156   0.3529   2.9857   3.7975   4.6441

          k = 0.1357 0.4700 0.0000 (  4712 PWs)   bands (ev):

   -19.8032 -15.4003 -11.6971  -7.3767  -1.2659   4.5051   4.9267   5.3258

          k = 0.1357 0.5483 0.0000 (  4720 PWs)   bands (ev):

   -18.6277 -16.8534 -11.9180  -6.4044  -2.4977   4.7856   6.3235   7.0010

          k = 0.2035 0.3525 0.0000 (  4713 PWs)   bands (ev):

   -20.9868 -13.2290 -11.7472  -8.6178   0.6228   2.8466   3.6420   4.5045

          k = 0.2035 0.4308 0.0000 (  4710 PWs)   bands (ev):

   -19.9972 -14.5053 -12.5622  -7.5309  -0.8467   4.2456   5.0028   6.1889

          k = 0.2035 0.5091 0.0000 (  4710 PWs)   bands (ev):

   -18.8608 -15.9197 -12.9875  -6.4002  -2.2283   5.8872   6.4233   6.5691

          k = 0.2035 0.5875 0.0000 (  4712 PWs)   bands (ev):

   -17.9429 -16.9459 -13.1203  -5.7552  -2.9618   6.4847   7.0627   7.6301

          k = 0.2713 0.4700 0.0000 (  4709 PWs)   bands (ev):

   -18.9478 -15.2870 -13.6744  -6.4128  -2.0872   5.7562   6.1926   7.4844

          k = 0.2713 0.5483 0.0000 (  4709 PWs)   bands (ev):

   -17.8196 -16.3246 -14.2119  -5.3384  -3.2167   6.5489   7.4338   8.2328

          k = 0.3392 0.5875 0.0000 (  4722 PWs)   bands (ev):

   -16.8732 -16.8732 -14.8161  -4.2593  -4.2593   6.3579   8.5813   8.5813

     the Fermi energy is    -4.2593 ev

!    total energy              =     -22.79367675 Ry
     estimated scf accuracy    <          3.4E-11 Ry
     smearing contrib. (-TS)   =      -0.00005015 Ry
     internal energy E=F+TS    =     -22.79362660 Ry

     The total energy is F=E-TS. E is the sum of the following terms:
     one-electron contribution =    -385.36913087 Ry
     hartree contribution      =     193.29958968 Ry
     xc contribution           =      -7.00229139 Ry
     ewald contribution        =     176.27820598 Ry

     convergence has been achieved in  17 iterations

     Forces acting on atoms (cartesian axes, Ry/au):

     atom    1 type  1   force =     0.00000000    0.00000000    0.00000000
     atom    2 type  1   force =     0.00000000    0.00000000    0.00000000

     Total force =     0.000000     Total SCF correction =     0.000000


     Computing stress (Cartesian axis) and pressure

          total   stress  (Ry/bohr**3)                   (kbar)     P=      -16.08
  -0.00011374  -0.00000000   0.00000000          -16.73       -0.00        0.00
  -0.00000000  -0.00011374   0.00000000           -0.00      -16.73        0.00
   0.00000000   0.00000000  -0.00010052            0.00        0.00      -14.79

     Energy error            =      2.4E-03
     Gradient error          =      0.0E+00
     Cell gradient error     =      1.1E-04


     number of scf cycles    =   3
     number of bfgs steps    =   2

     enthalpy old            =     -22.7912408653 Ry
     enthalpy new            =     -22.7936767501 Ry

     CASE: enthalpy_new < enthalpy_old

     new trust radius        =       0.0486271122 bohr
     new conv_thr            =            1.0E-10 Ry

     new unit-cell volume =    750.97051 a.u.^3 (   111.28235 Ang^3 )
     density =      0.35844 g/cm^3

CELL_PARAMETERS (alat=  4.75000000)
   0.974148137  -0.000000000   0.000000000
  -0.487074069   0.843637034   0.000000000
   0.000000000   0.000000000   8.526315789

ATOMIC_POSITIONS (crystal)
C             0.3333333333        0.6666666667        0.5000000000
C             0.6666666667        0.3333333333        0.5000000000



     Writing output data file ./work/LiC475.save/
     NEW-OLD atomic charge density approx. for the potential

     negative rho (up, down):  1.986E-06 0.000E+00
     extrapolated charge    7.85766, renormalised to    8.00000

     total cpu time spent up to now is        6.2 secs

     Self-consistent Calculation

     iteration #  1     ecut=    50.00 Ry     beta= 0.70
     Davidson diagonalization with overlap
     c_bands:  2 eigenvalues not converged
     c_bands:  3 eigenvalues not converged
     c_bands:  1 eigenvalues not converged
     c_bands:  1 eigenvalues not converged
     c_bands:  2 eigenvalues not converged
     c_bands:  1 eigenvalues not converged
     ethr =  1.00E-06,  avg # of iterations = 14.9

     negative rho (up, down):  4.977E-08 0.000E+00

     total cpu time spent up to now is        6.6 secs

     total energy              =     -22.78441785 Ry
     estimated scf accuracy    <       0.00520483 Ry

     iteration #  2     ecut=    50.00 Ry     beta= 0.70
     Davidson diagonalization with overlap
     ethr =  6.51E-05,  avg # of iterations = 10.3

     total cpu time spent up to now is        6.9 secs

     total energy              =     -22.79467479 Ry
     estimated scf accuracy    <       0.00485339 Ry

     iteration #  3     ecut=    50.00 Ry     beta= 0.70
     Davidson diagonalization with overlap
     ethr =  6.07E-05,  avg # of iterations =  1.1

     total cpu time spent up to now is        7.0 secs

     total energy              =     -22.79429459 Ry
     estimated scf accuracy    <       0.00108620 Ry

     iteration #  4     ecut=    50.00 Ry     beta= 0.70
     Davidson diagonalization with overlap
     ethr =  1.36E-05,  avg # of iterations =  3.2

     total cpu time spent up to now is        7.1 secs

     total energy              =     -22.79441764 Ry
     estimated scf accuracy    <       0.00005021 Ry

     iteration #  5     ecut=    50.00 Ry     beta= 0.70
     Davidson diagonalization with overlap
     ethr =  6.28E-07,  avg # of iterations =  3.2

     total cpu time spent up to now is        7.3 secs

     total energy              =     -22.79442779 Ry
     estimated scf accuracy    <       0.00005027 Ry

     iteration #  6     ecut=    50.00 Ry     beta= 0.70
     Davidson diagonalization with overlap
     ethr =  6.28E-07,  avg # of iterations =  1.0

     total cpu time spent up to now is        7.4 secs

     total energy              =     -22.79440836 Ry
     estimated scf accuracy    <       0.00006445 Ry

     iteration #  7     ecut=    50.00 Ry     beta= 0.70
     Davidson diagonalization with overlap
     ethr =  6.28E-07,  avg # of iterations =  1.6

     total cpu time spent up to now is        7.5 secs

     total energy              =     -22.79439742 Ry
     estimated scf accuracy    <       0.00004882 Ry

     iteration #  8     ecut=    50.00 Ry     beta= 0.70
     Davidson diagonalization with overlap
     ethr =  6.10E-07,  avg # of iterations =  1.0

     total cpu time spent up to now is        7.6 secs

     total energy              =     -22.79439707 Ry
     estimated scf accuracy    <       0.00000856 Ry

     iteration #  9     ecut=    50.00 Ry     beta= 0.70
     Davidson diagonalization with overlap
     ethr =  1.07E-07,  avg # of iterations =  2.0

     total cpu time spent up to now is        7.7 secs

     total energy              =     -22.79439828 Ry
     estimated scf accuracy    <       0.00000174 Ry

     iteration # 10     ecut=    50.00 Ry     beta= 0.70
     Davidson diagonalization with overlap
     ethr =  2.17E-08,  avg # of iterations =  1.0

     total cpu time spent up to now is        7.8 secs

     total energy              =     -22.79439831 Ry
     estimated scf accuracy    <       0.00000020 Ry

     iteration # 11     ecut=    50.00 Ry     beta= 0.70
     Davidson diagonalization with overlap
     ethr =  2.52E-09,  avg # of iterations =  1.3

     total cpu time spent up to now is        7.9 secs

     total energy              =     -22.79439828 Ry
     estimated scf accuracy    <       0.00000008 Ry

     iteration # 12     ecut=    50.00 Ry     beta= 0.70
     Davidson diagonalization with overlap
     ethr =  9.81E-10,  avg # of iterations =  2.0

     total cpu time spent up to now is        8.1 secs

     total energy              =     -22.79439829 Ry
     estimated scf accuracy    <          2.2E-09 Ry

     iteration # 13     ecut=    50.00 Ry     beta= 0.70
     Davidson diagonalization with overlap
     ethr =  2.77E-11,  avg # of iterations =  2.6

     total cpu time spent up to now is        8.2 secs

     total energy              =     -22.79439829 Ry
     estimated scf accuracy    <          2.2E-10 Ry

     iteration # 14     ecut=    50.00 Ry     beta= 0.70
     Davidson diagonalization with overlap
     ethr =  2.77E-12,  avg # of iterations =  2.1

     total cpu time spent up to now is        8.3 secs

     End of self-consistent calculation

          k = 0.0000 0.0000 0.0000 (  4795 PWs)   bands (ev):

   -23.8921 -11.9522  -7.2675  -7.2675  -0.9827  -0.2007   0.5899   0.9441

          k = 0.0000 0.0790 0.0000 (  4755 PWs)   bands (ev):

   -23.7860 -11.8242  -7.6932  -7.4945  -0.8383  -0.0541   0.7375   1.0911

          k = 0.0000 0.1580 0.0000 (  4759 PWs)   bands (ev):

   -23.4684 -11.4430  -8.8278  -8.0689  -0.4048   0.3853   1.1802   1.5317

          k = 0.0000 0.2371 0.0000 (  4757 PWs)   bands (ev):

   -22.9415 -10.8157 -10.3867  -8.7858   0.3173   1.1152   1.9179   2.2637

          k = 0.0000 0.3161 0.0000 (  4737 PWs)   bands (ev):

   -22.2095 -12.1321  -9.9577  -9.4833   1.3257   2.1024   2.7590   2.9487

          k = 0.0000 0.3951 0.0000 (  4709 PWs)   bands (ev):

   -21.2795 -13.9124 -10.0647  -8.9013   0.8175   2.6122   3.4715   3.7235

          k = 0.0000 0.4741 0.0000 (  4710 PWs)   bands (ev):

   -20.1672 -15.6313 -10.4739  -7.7342  -0.9682   3.4966   4.2245   5.0598

          k = 0.0000 0.5532 0.0000 (  4730 PWs)   bands (ev):

   -18.9430 -17.1684 -10.6858  -6.7576  -2.2772   3.4079   6.0464   6.9159

          k = 0.0684 0.1185 0.0000 (  4755 PWs)   bands (ev):

   -23.5741 -11.5693  -8.4216  -7.9474  -0.5492   0.2390   1.0327   1.3849

          k = 0.0684 0.1976 0.0000 (  4762 PWs)   bands (ev):

   -23.1519 -11.0650  -9.6774  -8.6865   0.0289   0.8240   1.6231   1.9718

          k = 0.0684 0.2766 0.0000 (  4744 PWs)   bands (ev):

   -22.5225 -11.2701 -10.3210  -9.4537   0.8949   1.6958   2.5083   2.8427

          k = 0.0684 0.3556 0.0000 (  4717 PWs)   bands (ev):

   -21.6914 -13.0027 -10.1241  -9.3594   1.6762   2.0454   2.8903   3.6841

          k = 0.0684 0.4346 0.0000 (  4706 PWs)   bands (ev):

   -20.6691 -14.7385 -10.6336  -8.2314  -0.1488   3.4626   4.1000   4.3286

          k = 0.0684 0.5136 0.0000 (  4724 PWs)   bands (ev):

   -19.4836 -16.3766 -10.9502  -7.0920  -1.7504   3.9141   5.2048   6.0454

          k = 0.0684 0.5927 0.0000 (  4728 PWs)   bands (ev):

   -18.4937 -17.5210 -11.0576  -6.4903  -2.5128   3.8660   7.0778   7.2337

          k = 0.1369 0.2371 0.0000 (  4743 PWs)   bands (ev):

   -22.6272 -10.7808 -10.4428  -9.6637   0.7514   1.5533   2.3613   2.7039

          k = 0.1369 0.3161 0.0000 (  4722 PWs)   bands (ev):

   -21.8986 -12.1839 -10.5810  -9.5916   1.7605   2.2395   2.5823   3.3942

          k = 0.1369 0.3951 0.0000 (  4716 PWs)   bands (ev):

   -20.9746 -13.7917 -11.2610  -8.5429   0.5354   3.0514   3.8727   4.7183

          k = 0.1369 0.4741 0.0000 (  4712 PWs)   bands (ev):

   -19.8716 -15.4219 -11.7100  -7.3760  -1.1292   4.6066   5.2729   5.4312

          k = 0.1369 0.5532 0.0000 (  4720 PWs)   bands (ev):

   -18.6635 -16.9122 -11.9343  -6.3771  -2.3971   5.1434   6.4525   7.1457

          k = 0.2053 0.3556 0.0000 (  4713 PWs)   bands (ev):

   -21.0769 -13.1996 -11.7727  -8.6477   0.8172   2.9097   3.7138   4.5744

          k = 0.2053 0.4346 0.0000 (  4710 PWs)   bands (ev):

   -20.0701 -14.4970 -12.6001  -7.5348  -0.6910   4.3343   5.1020   6.0456

          k = 0.2053 0.5136 0.0000 (  4710 PWs)   bands (ev):

   -18.9100 -15.9438 -13.0271  -6.3754  -2.1102   6.0102   6.5556   6.9402

          k = 0.2053 0.5927 0.0000 (  4712 PWs)   bands (ev):

   -17.9522 -17.0133 -13.1601  -5.7122  -2.8652   6.8610   7.2118   7.7932

          k = 0.2737 0.4741 0.0000 (  4709 PWs)   bands (ev):

   -19.0006 -15.2752 -13.7471  -6.3893  -1.9602   5.8737   6.3185   7.6131

          k = 0.2737 0.5532 0.0000 (  4709 PWs)   bands (ev):

   -17.8435 -16.3394 -14.2930  -5.2874  -3.1179   6.6762   7.5941   8.6026

          k = 0.3422 0.5927 0.0000 (  4722 PWs)   bands (ev):

   -16.8743 -16.8743 -14.9361  -4.1828  -4.1828   6.4749   8.8369   8.8369

     the Fermi energy is    -4.1828 ev

!    total energy              =     -22.79439829 Ry
     estimated scf accuracy    <          9.4E-11 Ry
     smearing contrib. (-TS)   =      -0.00005015 Ry
     internal energy E=F+TS    =     -22.79434814 Ry

     The total energy is F=E-TS. E is the sum of the following terms:
     one-electron contribution =    -392.32024146 Ry
     hartree contribution      =     196.79306166 Ry
     xc contribution           =      -7.04039524 Ry
     ewald contribution        =     179.77322691 Ry

     convergence has been achieved in  14 iterations

     Forces acting on atoms (cartesian axes, Ry/au):

     atom    1 type  1   force =     0.00000000    0.00000000    0.00000000
     atom    2 type  1   force =    -0.00000000   -0.00000000    0.00000000

     Total force =     0.000000     Total SCF correction =     0.000000


     Computing stress (Cartesian axis) and pressure

          total   stress  (Ry/bohr**3)                   (kbar)     P=       -4.13
   0.00000775   0.00000000   0.00000000            1.14        0.00        0.00
  -0.00000000   0.00000775   0.00000000           -0.00        1.14        0.00
   0.00000000  -0.00000000  -0.00009978            0.00       -0.00      -14.68

     Energy error            =      7.2E-04
     Gradient error          =      1.8E-26
     Cell gradient error     =      7.8E-06


     number of scf cycles    =   4
     number of bfgs steps    =   3

     enthalpy old            =     -22.7936767501 Ry
     enthalpy new            =     -22.7943982880 Ry

     CASE: enthalpy_new < enthalpy_old

     new trust radius        =       0.0030774736 bohr
     new conv_thr            =            1.0E-10 Ry

     new unit-cell volume =    751.81409 a.u.^3 (   111.40735 Ang^3 )
     density =      0.35804 g/cm^3

CELL_PARAMETERS (alat=  4.75000000)
   0.974695125  -0.000000000   0.000000000
  -0.487347563   0.844110739   0.000000000
   0.000000000   0.000000000   8.526315789

ATOMIC_POSITIONS (crystal)
C             0.3333333333        0.6666666667        0.5000000000
C             0.6666666667        0.3333333333        0.5000000000



     Writing output data file ./work/LiC475.save/
     NEW-OLD atomic charge density approx. for the potential
     extrapolated charge    8.00896, renormalised to    8.00000

     total cpu time spent up to now is        8.4 secs

     Self-consistent Calculation

     iteration #  1     ecut=    50.00 Ry     beta= 0.70
     Davidson diagonalization with overlap
     c_bands:  1 eigenvalues not converged
     c_bands:  1 eigenvalues not converged
     c_bands:  1 eigenvalues not converged
     ethr =  1.00E-06,  avg # of iterations =  9.6

     total cpu time spent up to now is        8.6 secs

     total energy              =     -22.79435332 Ry
     estimated scf accuracy    <       0.00002473 Ry

     iteration #  2     ecut=    50.00 Ry     beta= 0.70
     Davidson diagonalization with overlap
     c_bands:  1 eigenvalues not converged
     ethr =  3.09E-07,  avg # of iterations =  8.0

     total cpu time spent up to now is        8.9 secs

     total energy              =     -22.79440295 Ry
     estimated scf accuracy    <       0.00002314 Ry

     iteration #  3     ecut=    50.00 Ry     beta= 0.70
     Davidson diagonalization with overlap
     ethr =  2.89E-07,  avg # of iterations =  1.6

     total cpu time spent up to now is        9.0 secs

     total energy              =     -22.79440152 Ry
     estimated scf accuracy    <       0.00000533 Ry

     iteration #  4     ecut=    50.00 Ry     beta= 0.70
     Davidson diagonalization with overlap
     ethr =  6.67E-08,  avg # of iterations =  1.4

     total cpu time spent up to now is        9.1 secs

     total energy              =     -22.79440189 Ry
     estimated scf accuracy    <       0.00000090 Ry

     iteration #  5     ecut=    50.00 Ry     beta= 0.70
     Davidson diagonalization with overlap
     ethr =  1.13E-08,  avg # of iterations =  1.0

     total cpu time spent up to now is        9.2 secs

     total energy              =     -22.79440154 Ry
     estimated scf accuracy    <       0.00000096 Ry

     iteration #  6     ecut=    50.00 Ry     beta= 0.70
     Davidson diagonalization with overlap
     ethr =  1.13E-08,  avg # of iterations =  1.0

     total cpu time spent up to now is        9.3 secs

     total energy              =     -22.79440141 Ry
     estimated scf accuracy    <       0.00000026 Ry

     iteration #  7     ecut=    50.00 Ry     beta= 0.70
     Davidson diagonalization with overlap
     ethr =  3.28E-09,  avg # of iterations =  2.0

     total cpu time spent up to now is        9.4 secs

     total energy              =     -22.79440146 Ry
     estimated scf accuracy    <          4.0E-09 Ry

     iteration #  8     ecut=    50.00 Ry     beta= 0.70
     Davidson diagonalization with overlap
     ethr =  5.03E-11,  avg # of iterations =  2.4

     total cpu time spent up to now is        9.6 secs

     total energy              =     -22.79440146 Ry
     estimated scf accuracy    <          1.1E-10 Ry

     iteration #  9     ecut=    50.00 Ry     beta= 0.70
     Davidson diagonalization with overlap
     ethr =  1.41E-12,  avg # of iterations =  3.3

     total cpu time spent up to now is        9.7 secs

     End of self-consistent calculation

          k = 0.0000 0.0000 0.0000 (  4795 PWs)   bands (ev):

   -23.8835 -11.9456  -7.2729  -7.2729  -0.9824  -0.2008   0.5899   0.9441

          k = 0.0000 0.0790 0.0000 (  4755 PWs)   bands (ev):

   -23.7775 -11.8178  -7.6983  -7.4995  -0.8381  -0.0543   0.7373   1.0909

          k = 0.0000 0.1580 0.0000 (  4759 PWs)   bands (ev):

   -23.4603 -11.4371  -8.8322  -8.0730  -0.4051   0.3846   1.1796   1.5311

          k = 0.0000 0.2369 0.0000 (  4757 PWs)   bands (ev):

   -22.9339 -10.8107 -10.3899  -8.7887   0.3161   1.1137   1.9165   2.2622

          k = 0.0000 0.3159 0.0000 (  4737 PWs)   bands (ev):

   -22.2026 -12.1337  -9.9539  -9.4851   1.3234   2.0990   2.7448   2.9460

          k = 0.0000 0.3949 0.0000 (  4709 PWs)   bands (ev):

   -21.2736 -13.9124 -10.0656  -8.8990   0.8059   2.6083   3.4671   3.7028

          k = 0.0000 0.4739 0.0000 (  4710 PWs)   bands (ev):

   -20.1625 -15.6294 -10.4743  -7.7337  -0.9767   3.4758   4.2182   5.0536

          k = 0.0000 0.5529 0.0000 (  4730 PWs)   bands (ev):

   -18.9405 -17.1641 -10.6858  -6.7588  -2.2833   3.3862   6.0387   6.9073

          k = 0.0684 0.1185 0.0000 (  4755 PWs)   bands (ev):

   -23.5659 -11.5633  -8.4263  -7.9516  -0.5494   0.2384   1.0322   1.3845

          k = 0.0684 0.1974 0.0000 (  4762 PWs)   bands (ev):

   -23.1441 -11.0596  -9.6813  -8.6895   0.0281   0.8228   1.6220   1.9706

          k = 0.0684 0.2764 0.0000 (  4744 PWs)   bands (ev):

   -22.5153 -11.2726 -10.3167  -9.4556   0.8931   1.6935   2.5062   2.8407

          k = 0.0684 0.3554 0.0000 (  4717 PWs)   bands (ev):

   -21.6850 -13.0036 -10.1251  -9.3564   1.6630   2.0422   2.8864   3.6803

          k = 0.0684 0.4344 0.0000 (  4706 PWs)   bands (ev):

   -20.6638 -14.7376 -10.6339  -8.2301  -0.1589   3.4575   4.0790   4.3232

          k = 0.0684 0.5134 0.0000 (  4724 PWs)   bands (ev):

   -19.4799 -16.3738 -10.9502  -7.0926  -1.7576   3.8923   5.1979   6.0379

          k = 0.0684 0.5923 0.0000 (  4728 PWs)   bands (ev):

   -18.4929 -17.5152 -11.0574  -6.4920  -2.5186   3.8439   7.0687   7.2247

          k = 0.1368 0.2369 0.0000 (  4743 PWs)   bands (ev):

   -22.6198 -10.7841 -10.4384  -9.6652   0.7498   1.5513   2.3594   2.7019

          k = 0.1368 0.3159 0.0000 (  4722 PWs)   bands (ev):

   -21.8921 -12.1860 -10.5813  -9.5883   1.7577   2.2252   2.5786   3.3911

          k = 0.1368 0.3949 0.0000 (  4716 PWs)   bands (ev):

   -20.9689 -13.7922 -11.2606  -8.5411   0.5237   3.0471   3.8679   4.7137

          k = 0.1368 0.4739 0.0000 (  4712 PWs)   bands (ev):

   -19.8672 -15.4206 -11.7093  -7.3760  -1.1380   4.6002   5.2506   5.4244

          k = 0.1368 0.5529 0.0000 (  4720 PWs)   bands (ev):

   -18.6612 -16.9085 -11.9333  -6.3788  -2.4035   5.1205   6.4442   7.1364

          k = 0.2052 0.3554 0.0000 (  4713 PWs)   bands (ev):

   -21.0712 -13.2016 -11.7711  -8.6458   0.8048   2.9057   3.7092   4.5699

          k = 0.2052 0.4344 0.0000 (  4710 PWs)   bands (ev):

   -20.0654 -14.4976 -12.5978  -7.5345  -0.7010   4.3286   5.0956   6.0392

          k = 0.2052 0.5134 0.0000 (  4710 PWs)   bands (ev):

   -18.9069 -15.9423 -13.0247  -6.3769  -2.1178   6.0023   6.5470   6.9165

          k = 0.2052 0.5923 0.0000 (  4712 PWs)   bands (ev):

   -17.9517 -17.0089 -13.1577  -5.7150  -2.8713   6.8370   7.2022   7.7828

          k = 0.2736 0.4739 0.0000 (  4709 PWs)   bands (ev):

   -18.9972 -15.2760 -13.7425  -6.3908  -1.9684   5.8662   6.3104   7.6059

          k = 0.2736 0.5529 0.0000 (  4709 PWs)   bands (ev):

   -17.8420 -16.3385 -14.2879  -5.2907  -3.1242   6.6680   7.5838   8.5787

          k = 0.3420 0.5923 0.0000 (  4722 PWs)   bands (ev):

   -16.8743 -16.8743 -14.9285  -4.1877  -4.1877   6.4674   8.8208   8.8208

     the Fermi energy is    -4.1877 ev

!    total energy              =     -22.79440146 Ry
     estimated scf accuracy    <          5.6E-11 Ry
     smearing contrib. (-TS)   =      -0.00005015 Ry
     internal energy E=F+TS    =     -22.79435131 Ry

     The total energy is F=E-TS. E is the sum of the following terms:
     one-electron contribution =    -391.87471096 Ry
     hartree contribution      =     196.56913375 Ry
     xc contribution           =      -7.03795918 Ry
     ewald contribution        =     179.54918508 Ry

     convergence has been achieved in   9 iterations

     Forces acting on atoms (cartesian axes, Ry/au):

     atom    1 type  1   force =     0.00000000    0.00000000    0.00000000
     atom    2 type  1   force =    -0.00000000   -0.00000000    0.00000000

     Total force =     0.000000     Total SCF correction =     0.000000


     Computing stress (Cartesian axis) and pressure

          total   stress  (Ry/bohr**3)                   (kbar)     P=       -4.92
  -0.00000023  -0.00000000  -0.00000000           -0.03       -0.00       -0.00
   0.00000000  -0.00000023  -0.00000000            0.00       -0.03       -0.00
   0.00000000   0.00000000  -0.00009984            0.00        0.00      -14.69

     Energy error            =      3.2E-06
     Gradient error          =      1.8E-26
     Cell gradient error     =      2.3E-07


     number of scf cycles    =   5
     number of bfgs steps    =   4

     enthalpy old            =     -22.7943982880 Ry
     enthalpy new            =     -22.7944014587 Ry

     CASE: enthalpy_new < enthalpy_old

     small trust_radius: resetting bfgs history

     new trust radius        =       0.0000314314 bohr
     new conv_thr            =            1.0E-10 Ry

     new unit-cell volume =    751.80547 a.u.^3 (   111.40608 Ang^3 )
     density =      0.35805 g/cm^3

CELL_PARAMETERS (alat=  4.75000000)
   0.974689539  -0.000000000   0.000000000
  -0.487344769   0.844105901   0.000000000
   0.000000000   0.000000000   8.526315789

ATOMIC_POSITIONS (crystal)
C             0.3333333333        0.6666666667        0.5000000000
C             0.6666666667        0.3333333333        0.5000000000



     Writing output data file ./work/LiC475.save/
     NEW-OLD atomic charge density approx. for the potential
     extrapolated charge    7.99991, renormalised to    8.00000

     total cpu time spent up to now is        9.8 secs

     Self-consistent Calculation

     iteration #  1     ecut=    50.00 Ry     beta= 0.70
     Davidson diagonalization with overlap
     ethr =  1.00E-06,  avg # of iterations =  1.0

     Threshold (ethr) on eigenvalues was too large:
     Diagonalizing with lowered threshold

     Davidson diagonalization with overlap
     ethr =  2.51E-11,  avg # of iterations =  1.9

     total cpu time spent up to now is       10.0 secs

     total energy              =     -22.79440146 Ry
     estimated scf accuracy    <          2.3E-09 Ry

     iteration #  2     ecut=    50.00 Ry     beta= 0.70
     Davidson diagonalization with overlap
     ethr =  2.86E-11,  avg # of iterations =  3.0

     total cpu time spent up to now is       10.1 secs

     total energy              =     -22.79440146 Ry
     estimated scf accuracy    <          2.4E-09 Ry

     iteration #  3     ecut=    50.00 Ry     beta= 0.70
     Davidson diagonalization with overlap
     ethr =  2.86E-11,  avg # of iterations =  1.0

     total cpu time spent up to now is       10.2 secs

     total energy              =     -22.79440146 Ry
     estimated scf accuracy    <          5.8E-10 Ry

     iteration #  4     ecut=    50.00 Ry     beta= 0.70
     Davidson diagonalization with overlap
     ethr =  7.26E-12,  avg # of iterations =  2.0

     total cpu time spent up to now is       10.3 secs

     End of self-consistent calculation

          k = 0.0000 0.0000 0.0000 (  4795 PWs)   bands (ev):

   -23.8834 -11.9455  -7.2727  -7.2727  -0.9824  -0.2007   0.5899   0.9441

          k = 0.0000 0.0790 0.0000 (  4755 PWs)   bands (ev):

   -23.7774 -11.8177  -7.6981  -7.4993  -0.8381  -0.0542   0.7373   1.0909

          k = 0.0000 0.1580 0.0000 (  4759 PWs)   bands (ev):

   -23.4602 -11.4371  -8.8320  -8.0727  -0.4050   0.3847   1.1796   1.5311

          k = 0.0000 0.2369 0.0000 (  4757 PWs)   bands (ev):

   -22.9338 -10.8106 -10.3897  -8.7885   0.3162   1.1138   1.9165   2.2623

          k = 0.0000 0.3159 0.0000 (  4737 PWs)   bands (ev):

   -22.2025 -12.1336  -9.9538  -9.4849   1.3235   2.0991   2.7450   2.9460

          k = 0.0000 0.3949 0.0000 (  4709 PWs)   bands (ev):

   -21.2735 -13.9122 -10.0654  -8.8989   0.8061   2.6084   3.4672   3.7031

          k = 0.0000 0.4739 0.0000 (  4710 PWs)   bands (ev):

   -20.1624 -15.6293 -10.4741  -7.7336  -0.9764   3.4761   4.2183   5.0537

          k = 0.0000 0.5529 0.0000 (  4730 PWs)   bands (ev):

   -18.9403 -17.1640 -10.6857  -6.7587  -2.2831   3.3866   6.0389   6.9074

          k = 0.0684 0.1185 0.0000 (  4755 PWs)   bands (ev):

   -23.5658 -11.5632  -8.4261  -7.9513  -0.5493   0.2385   1.0322   1.3845

          k = 0.0684 0.1974 0.0000 (  4762 PWs)   bands (ev):

   -23.1440 -11.0595  -9.6811  -8.6893   0.0282   0.8229   1.6220   1.9706

          k = 0.0684 0.2764 0.0000 (  4744 PWs)   bands (ev):

   -22.5152 -11.2724 -10.3166  -9.4554   0.8932   1.6936   2.5062   2.8406

          k = 0.0684 0.3554 0.0000 (  4717 PWs)   bands (ev):

   -21.6850 -13.0034 -10.1249  -9.3563   1.6633   2.0423   2.8865   3.6803

          k = 0.0684 0.4344 0.0000 (  4706 PWs)   bands (ev):

   -20.6637 -14.7375 -10.6338  -8.2300  -0.1586   3.4576   4.0793   4.3233

          k = 0.0684 0.5134 0.0000 (  4724 PWs)   bands (ev):

   -19.4798 -16.3737 -10.9500  -7.0924  -1.7574   3.8927   5.1981   6.0381

          k = 0.0684 0.5923 0.0000 (  4728 PWs)   bands (ev):

   -18.4928 -17.5151 -11.0572  -6.4919  -2.5184   3.8443   7.0688   7.2248

          k = 0.1368 0.2369 0.0000 (  4743 PWs)   bands (ev):

   -22.6198 -10.7839 -10.4383  -9.6650   0.7499   1.5514   2.3594   2.7019

          k = 0.1368 0.3159 0.0000 (  4722 PWs)   bands (ev):

   -21.8920 -12.1858 -10.5812  -9.5882   1.7578   2.2255   2.5787   3.3911

          k = 0.1368 0.3949 0.0000 (  4716 PWs)   bands (ev):

   -20.9688 -13.7920 -11.2604  -8.5410   0.5240   3.0472   3.8680   4.7137

          k = 0.1368 0.4739 0.0000 (  4712 PWs)   bands (ev):

   -19.8671 -15.4204 -11.7091  -7.3759  -1.1377   4.6004   5.2510   5.4245

          k = 0.1368 0.5529 0.0000 (  4720 PWs)   bands (ev):

   -18.6611 -16.9084 -11.9332  -6.3787  -2.4033   5.1209   6.4443   7.1365

          k = 0.2052 0.3554 0.0000 (  4713 PWs)   bands (ev):

   -21.0711 -13.2014 -11.7710  -8.6457   0.8050   2.9058   3.7093   4.5699

          k = 0.2052 0.4344 0.0000 (  4710 PWs)   bands (ev):

   -20.0653 -14.4974 -12.5976  -7.5344  -0.7007   4.3287   5.0957   6.0393

          k = 0.2052 0.5134 0.0000 (  4710 PWs)   bands (ev):

   -18.9068 -15.9421 -13.0245  -6.3768  -2.1176   6.0025   6.5472   6.9169

          k = 0.2052 0.5923 0.0000 (  4712 PWs)   bands (ev):

   -17.9515 -17.0088 -13.1575  -5.7148  -2.8711   6.8374   7.2024   7.7829

          k = 0.2736 0.4739 0.0000 (  4709 PWs)   bands (ev):

   -18.9971 -15.2758 -13.7424  -6.3906  -1.9682   5.8663   6.3106   7.6058

          k = 0.2736 0.5529 0.0000 (  4709 PWs)   bands (ev):

   -17.8418 -16.3383 -14.2878  -5.2905  -3.1240   6.6682   7.5840   8.5791

          k = 0.3420 0.5923 0.0000 (  4722 PWs)   bands (ev):

   -16.8741 -16.8741 -14.9284  -4.1875  -4.1875   6.4676   8.8211   8.8211

     the Fermi energy is    -4.1875 ev

!    total energy              =     -22.79440146 Ry
     estimated scf accuracy    <          6.1E-11 Ry
     smearing contrib. (-TS)   =      -0.00005015 Ry
     internal energy E=F+TS    =     -22.79435131 Ry

     The total energy is F=E-TS. E is the sum of the following terms:
     one-electron contribution =    -391.87921206 Ry
     hartree contribution      =     196.57136796 Ry
     xc contribution           =      -7.03797854 Ry
     ewald contribution        =     179.55147133 Ry

     convergence has been achieved in   4 iterations

     Forces acting on atoms (cartesian axes, Ry/au):

     atom    1 type  1   force =    -0.00000000   -0.00000000    0.00000000
     atom    2 type  1   force =     0.00000000    0.00000000    0.00000000

     Total force =     0.000000     Total SCF correction =     0.000000


     Computing stress (Cartesian axis) and pressure

          total   stress  (Ry/bohr**3)                   (kbar)     P=       -4.91
  -0.00000015  -0.00000000   0.00000000           -0.02       -0.00        0.00
  -0.00000000  -0.00000015   0.00000000           -0.00       -0.02        0.00
   0.00000000   0.00000000  -0.00009989            0.00        0.00      -14.69

     Energy error            =      1.6E-09
     Gradient error          =      1.8E-26
     Cell gradient error     =      1.5E-07


     number of scf cycles    =   6
     number of bfgs steps    =   5

     enthalpy old            =     -22.7944014587 Ry
     enthalpy new            =     -22.7944014603 Ry

     CASE: enthalpy_new < enthalpy_old

     Message from routine bfgs:
     history already reset at previous step: stopping
     small trust_radius: resetting bfgs history

     new trust radius        =       0.0000199883 bohr
     new conv_thr            =            1.0E-10 Ry

     new unit-cell volume =    751.79999 a.u.^3 (   111.40527 Ang^3 )
     density =      0.35805 g/cm^3

CELL_PARAMETERS (alat=  4.75000000)
   0.974685986  -0.000000000   0.000000000
  -0.487342993   0.844102825   0.000000000
   0.000000000   0.000000000   8.526315789

ATOMIC_POSITIONS (crystal)
C             0.3333333333        0.6666666667        0.5000000000
C             0.6666666667        0.3333333333        0.5000000000



     Writing output data file ./work/LiC475.save/
     NEW-OLD atomic charge density approx. for the potential
     extrapolated charge    7.99994, renormalised to    8.00000

     total cpu time spent up to now is       10.4 secs

     Self-consistent Calculation

     iteration #  1     ecut=    50.00 Ry     beta= 0.70
     Davidson diagonalization with overlap
     ethr =  1.00E-06,  avg # of iterations =  1.0

     Threshold (ethr) on eigenvalues was too large:
     Diagonalizing with lowered threshold

     Davidson diagonalization with overlap
     ethr =  1.46E-11,  avg # of iterations =  1.9

     total cpu time spent up to now is       10.6 secs

     total energy              =     -22.79440146 Ry
     estimated scf accuracy    <          1.3E-09 Ry

     iteration #  2     ecut=    50.00 Ry     beta= 0.70
     Davidson diagonalization with overlap
     ethr =  1.65E-11,  avg # of iterations =  2.6

     total cpu time spent up to now is       10.8 secs

     total energy              =     -22.79440146 Ry
     estimated scf accuracy    <          9.6E-10 Ry

     iteration #  3     ecut=    50.00 Ry     beta= 0.70
     Davidson diagonalization with overlap
     ethr =  1.20E-11,  avg # of iterations =  1.0

     total cpu time spent up to now is       10.9 secs

     total energy              =     -22.79440146 Ry
     estimated scf accuracy    <          2.0E-10 Ry

     iteration #  4     ecut=    50.00 Ry     beta= 0.70
     Davidson diagonalization with overlap
     ethr =  2.52E-12,  avg # of iterations =  1.0

     total cpu time spent up to now is       11.0 secs

     End of self-consistent calculation

          k = 0.0000 0.0000 0.0000 (  4795 PWs)   bands (ev):

   -23.8835 -11.9456  -7.2727  -7.2727  -0.9824  -0.2007   0.5899   0.9441

          k = 0.0000 0.0790 0.0000 (  4755 PWs)   bands (ev):

   -23.7775 -11.8178  -7.6980  -7.4993  -0.8381  -0.0543   0.7373   1.0909

          k = 0.0000 0.1580 0.0000 (  4759 PWs)   bands (ev):

   -23.4602 -11.4371  -8.8320  -8.0727  -0.4050   0.3847   1.1796   1.5311

          k = 0.0000 0.2369 0.0000 (  4757 PWs)   bands (ev):

   -22.9339 -10.8106 -10.3897  -8.7885   0.3162   1.1138   1.9165   2.2623

          k = 0.0000 0.3159 0.0000 (  4737 PWs)   bands (ev):

   -22.2026 -12.1336  -9.9538  -9.4849   1.3235   2.0991   2.7451   2.9460

          k = 0.0000 0.3949 0.0000 (  4709 PWs)   bands (ev):

   -21.2735 -13.9122 -10.0654  -8.8990   0.8062   2.6085   3.4672   3.7033

          k = 0.0000 0.4739 0.0000 (  4710 PWs)   bands (ev):

   -20.1624 -15.6293 -10.4741  -7.7336  -0.9764   3.4763   4.2184   5.0537

          k = 0.0000 0.5529 0.0000 (  4730 PWs)   bands (ev):

   -18.9403 -17.1640 -10.6857  -6.7587  -2.2830   3.3867   6.0389   6.9075

          k = 0.0684 0.1185 0.0000 (  4755 PWs)   bands (ev):

   -23.5659 -11.5633  -8.4261  -7.9513  -0.5493   0.2385   1.0322   1.3845

          k = 0.0684 0.1974 0.0000 (  4762 PWs)   bands (ev):

   -23.1441 -11.0596  -9.6810  -8.6893   0.0282   0.8229   1.6220   1.9706

          k = 0.0684 0.2764 0.0000 (  4744 PWs)   bands (ev):

   -22.5152 -11.2724 -10.3166  -9.4554   0.8932   1.6936   2.5062   2.8406

          k = 0.0684 0.3554 0.0000 (  4717 PWs)   bands (ev):

   -21.6850 -13.0034 -10.1249  -9.3563   1.6634   2.0424   2.8865   3.6803

          k = 0.0684 0.4344 0.0000 (  4706 PWs)   bands (ev):

   -20.6637 -14.7375 -10.6338  -8.2300  -0.1586   3.4576   4.0794   4.3233

          k = 0.0684 0.5134 0.0000 (  4724 PWs)   bands (ev):

   -19.4798 -16.3737 -10.9500  -7.0924  -1.7574   3.8928   5.1981   6.0381

          k = 0.0684 0.5923 0.0000 (  4728 PWs)   bands (ev):

   -18.4928 -17.5151 -11.0572  -6.4919  -2.5184   3.8444   7.0689   7.2249

          k = 0.1368 0.2369 0.0000 (  4743 PWs)   bands (ev):

   -22.6198 -10.7839 -10.4383  -9.6650   0.7499   1.5514   2.3594   2.7019

          k = 0.1368 0.3159 0.0000 (  4722 PWs)   bands (ev):

   -21.8920 -12.1858 -10.5812  -9.5882   1.7578   2.2256   2.5787   3.3912

          k = 0.1368 0.3949 0.0000 (  4716 PWs)   bands (ev):

   -20.9689 -13.7920 -11.2605  -8.5410   0.5240   3.0473   3.8680   4.7136

          k = 0.1368 0.4739 0.0000 (  4712 PWs)   bands (ev):

   -19.8671 -15.4204 -11.7091  -7.3759  -1.1377   4.6004   5.2511   5.4245

          k = 0.1368 0.5529 0.0000 (  4720 PWs)   bands (ev):

   -18.6611 -16.9084 -11.9332  -6.3787  -2.4033   5.1211   6.4444   7.1366

          k = 0.2052 0.3554 0.0000 (  4713 PWs)   bands (ev):

   -21.0711 -13.2014 -11.7710  -8.6457   0.8051   2.9058   3.7093   4.5700

          k = 0.2052 0.4344 0.0000 (  4710 PWs)   bands (ev):

   -20.0653 -14.4974 -12.5977  -7.5344  -0.7007   4.3287   5.0957   6.0393

          k = 0.2052 0.5134 0.0000 (  4710 PWs)   bands (ev):

   -18.9068 -15.9421 -13.0245  -6.3768  -2.1175   6.0025   6.5472   6.9170

          k = 0.2052 0.5923 0.0000 (  4712 PWs)   bands (ev):

   -17.9515 -17.0089 -13.1575  -5.7148  -2.8711   6.8375   7.2025   7.7830

          k = 0.2736 0.4739 0.0000 (  4709 PWs)   bands (ev):

   -18.9971 -15.2758 -13.7424  -6.3906  -1.9681   5.8663   6.3106   7.6056

          k = 0.2736 0.5529 0.0000 (  4709 PWs)   bands (ev):

   -17.8418 -16.3383 -14.2878  -5.2905  -3.1240   6.6682   7.5840   8.5793

          k = 0.3420 0.5923 0.0000 (  4722 PWs)   bands (ev):

   -16.8741 -16.8741 -14.9284  -4.1875  -4.1875   6.4676   8.8212   8.8212

     the Fermi energy is    -4.1875 ev

!    total energy              =     -22.79440146 Ry
     estimated scf accuracy    <          5.3E-11 Ry
     smearing contrib. (-TS)   =      -0.00005015 Ry
     internal energy E=F+TS    =     -22.79435131 Ry

     The total energy is F=E-TS. E is the sum of the following terms:
     one-electron contribution =    -391.88210552 Ry
     hartree contribution      =     196.57282356 Ry
     xc contribution           =      -7.03799461 Ry
     ewald contribution        =     179.55292526 Ry

     convergence has been achieved in   4 iterations

     Forces acting on atoms (cartesian axes, Ry/au):

     atom    1 type  1   force =    -0.00000000   -0.00000000    0.00000000
     atom    2 type  1   force =     0.00000000    0.00000000    0.00000000

     Total force =     0.000000     Total SCF correction =     0.000000


     Computing stress (Cartesian axis) and pressure

          total   stress  (Ry/bohr**3)                   (kbar)     P=       -4.91
  -0.00000009   0.00000000   0.00000000           -0.01        0.00        0.00
   0.00000000  -0.00000009   0.00000000            0.00       -0.01        0.00
   0.00000000   0.00000000  -0.00009989            0.00        0.00      -14.69

     Message from routine bfgs:
     history already reset at previous step: stopping
     Energy error            =      6.6E-10
     Gradient error          =      1.8E-26
     Cell gradient error     =      9.4E-08


     bfgs converged in   7 scf cycles and   6 bfgs steps
     (criteria: energy <  1.0E-04 Ry, force <  1.0E-08Ry/Bohr, cell <  1.0E-03kbar)

     End of BFGS Geometry Optimization

     Final enthalpy =     -22.7944014610 Ry

     File ./work/LiC475.bfgs deleted, as requested
Begin final coordinates
     new unit-cell volume =    751.79999 a.u.^3 (   111.40527 Ang^3 )
     density =      0.35805 g/cm^3

CELL_PARAMETERS (alat=  4.75000000)
   0.974685986  -0.000000000   0.000000000
  -0.487342993   0.844102825   0.000000000
   0.000000000   0.000000000   8.526315789

ATOMIC_POSITIONS (crystal)
C             0.3333333333        0.6666666667        0.5000000000
C             0.6666666667        0.3333333333        0.5000000000
End final coordinates



     Writing output data file ./work/LiC475.save/

     Final scf calculation at the relaxed structure.
     The G-vectors are recalculated for the final unit cell
     Results may differ from those at the preceding step.
 
     Parallelization info
     --------------------
     sticks:   dense  smooth     PW     G-vecs:    dense   smooth      PW
     Min           9       9      2                 1115     1115     170
     Max          10      10      3                 1144     1144     215
     Sum         301     301     91                35979    35979    6397
 


     bravais-lattice index     =            4
     lattice parameter (alat)  =       4.7500  a.u.
     unit-cell volume          =     751.8000 (a.u.)^3
     number of atoms/cell      =            2
     number of atomic types    =            1
     number of electrons       =         8.00
     number of Kohn-Sham states=            8
     kinetic-energy cutoff     =      50.0000  Ry
     charge density cutoff     =     200.0000  Ry
     scf convergence threshold =      1.0E-10
     mixing beta               =       0.7000
     number of iterations used =            8  plain     mixing
     press convergence thresh. =      1.0E-03
     Exchange-correlation= PBE
                           (   1   4   3   4   0   0   0)

     celldm(1)=   4.750000  celldm(2)=   0.000000  celldm(3)=   8.526316
     celldm(4)=   0.000000  celldm(5)=   0.000000  celldm(6)=   0.000000

     crystal axes: (cart. coord. in units of alat)
               a(1) = (   0.974686  -0.000000   0.000000 )  
               a(2) = (  -0.487343   0.844103   0.000000 )  
               a(3) = (   0.000000   0.000000   8.526316 )  

     reciprocal axes: (cart. coord. in units 2 pi/alat)
               b(1) = (  1.025971  0.592345  0.000000 )  
               b(2) = (  0.000000  1.184690  0.000000 )  
               b(3) = (  0.000000  0.000000  0.117284 )  


     PseudoPot. # 1 for C  read from file:
     /home/yhkim/qe-6.7/pseudo/ONCV1/1.2/C_ONCV_PBE-1.2.upf
     MD5 check sum: 1a5f83a7b1f58d24996abe00ed223ac6
     Pseudo is Norm-conserving, Zval =  4.0
     Generated using ONCVPSP code by D. R. Hamann
     Using radial grid of  602 points,  4 beta functions with: 
                l(1) =   0
                l(2) =   0
                l(3) =   1
                l(4) =   1

     atomic species   valence    mass     pseudopotential
        C              4.00    12.01070     C ( 1.00)

     24 Sym. Ops., with inversion, found



   Cartesian axes

     site n.     atom                  positions (alat units)
         1           C   tau(   1) = (  -0.0000000   0.5627352   4.2631579  )
         2           C   tau(   2) = (   0.4873430   0.2813676   4.2631579  )

     number of k points=    27  Methfessel-Paxton smearing, width (Ry)=  0.0100
                       cart. coord. in units 2pi/alat
        k(    1) = (   0.0000000   0.0000000   0.0000000), wk =   0.0088889
        k(    2) = (   0.0000000   0.0789793   0.0000000), wk =   0.0533333
        k(    3) = (   0.0000000   0.1579586   0.0000000), wk =   0.0533333
        k(    4) = (   0.0000000   0.2369380   0.0000000), wk =   0.0533333
        k(    5) = (   0.0000000   0.3159173   0.0000000), wk =   0.0533333
        k(    6) = (   0.0000000   0.3948966   0.0000000), wk =   0.0533333
        k(    7) = (   0.0000000   0.4738759   0.0000000), wk =   0.0533333
        k(    8) = (   0.0000000   0.5528552   0.0000000), wk =   0.0533333
        k(    9) = (   0.0683981   0.1184690   0.0000000), wk =   0.0533333
        k(   10) = (   0.0683981   0.1974483   0.0000000), wk =   0.1066667
        k(   11) = (   0.0683981   0.2764276   0.0000000), wk =   0.1066667
        k(   12) = (   0.0683981   0.3554069   0.0000000), wk =   0.1066667
        k(   13) = (   0.0683981   0.4343863   0.0000000), wk =   0.1066667
        k(   14) = (   0.0683981   0.5133656   0.0000000), wk =   0.1066667
        k(   15) = (   0.0683981   0.5923449   0.0000000), wk =   0.0533333
        k(   16) = (   0.1367962   0.2369380   0.0000000), wk =   0.0533333
        k(   17) = (   0.1367962   0.3159173   0.0000000), wk =   0.1066667
        k(   18) = (   0.1367962   0.3948966   0.0000000), wk =   0.1066667
        k(   19) = (   0.1367962   0.4738759   0.0000000), wk =   0.1066667
        k(   20) = (   0.1367962   0.5528552   0.0000000), wk =   0.1066667
        k(   21) = (   0.2051943   0.3554069   0.0000000), wk =   0.0533333
        k(   22) = (   0.2051943   0.4343863   0.0000000), wk =   0.1066667
        k(   23) = (   0.2051943   0.5133656   0.0000000), wk =   0.1066667
        k(   24) = (   0.2051943   0.5923449   0.0000000), wk =   0.0533333
        k(   25) = (   0.2735924   0.4738759   0.0000000), wk =   0.0533333
        k(   26) = (   0.2735924   0.5528552   0.0000000), wk =   0.1066667
        k(   27) = (   0.3419905   0.5923449   0.0000000), wk =   0.0177778

     Dense  grid:    35979 G-vectors     FFT dimensions: (  24,  24, 192)

     Estimated max dynamical RAM per process >       1.96 MB

     Estimated total dynamical RAM >      62.58 MB
 ----2D----2D----2D----2D----2D----2D----2D----2D----2D----2D----2D----2D
  The code is running with the 2D cutoff
  Please refer to:
  Sohier, T., Calandra, M., & Mauri, F. (2017), 
  Density functional perturbation theory for gated two-dimensional heterostructu
 res:
  Theoretical developments and application to flexural phonons in graphene.
  Physical Review B, 96(7), 75448. https://doi.org/10.1103/PhysRevB.96.075448
 ----2D----2D----2D----2D----2D----2D----2D----2D----2D----2D----2D----2D

     Initial potential from superposition of free atoms

     starting charge    7.98607, renormalised to    8.00000

     negative rho (up, down):  1.157E-04 0.000E+00
     Starting wfcs are random

     total cpu time spent up to now is       11.1 secs

     Self-consistent Calculation

     iteration #  1     ecut=    50.00 Ry     beta= 0.70
     Davidson diagonalization with overlap
     c_bands:  5 eigenvalues not converged
     c_bands:  3 eigenvalues not converged
     c_bands:  3 eigenvalues not converged
     c_bands:  5 eigenvalues not converged
     c_bands:  4 eigenvalues not converged
     c_bands:  4 eigenvalues not converged
     c_bands:  2 eigenvalues not converged
     c_bands:  2 eigenvalues not converged
     c_bands:  5 eigenvalues not converged
     c_bands:  4 eigenvalues not converged
     c_bands:  5 eigenvalues not converged
     c_bands:  4 eigenvalues not converged
     c_bands:  3 eigenvalues not converged
     c_bands:  2 eigenvalues not converged
     c_bands:  3 eigenvalues not converged
     c_bands:  4 eigenvalues not converged
     c_bands:  4 eigenvalues not converged
     c_bands:  3 eigenvalues not converged
     c_bands:  3 eigenvalues not converged
     c_bands:  3 eigenvalues not converged
     c_bands:  4 eigenvalues not converged
     c_bands:  4 eigenvalues not converged
     c_bands:  4 eigenvalues not converged
     c_bands:  3 eigenvalues not converged
     c_bands:  3 eigenvalues not converged
     c_bands:  3 eigenvalues not converged
     c_bands:  3 eigenvalues not converged
     ethr =  1.00E-06,  avg # of iterations = 21.5

     negative rho (up, down):  2.327E-05 0.000E+00

     total cpu time spent up to now is       11.8 secs

     total energy              =     -22.75975197 Ry
     estimated scf accuracy    <       0.20110801 Ry

     iteration #  2     ecut=    50.00 Ry     beta= 0.70
     Davidson diagonalization with overlap
     ethr =  2.51E-03,  avg # of iterations =  2.3

     negative rho (up, down):  3.004E-06 0.000E+00

     total cpu time spent up to now is       12.0 secs

     total energy              =     -22.79010258 Ry
     estimated scf accuracy    <       0.00234119 Ry

     iteration #  3     ecut=    50.00 Ry     beta= 0.70
     Davidson diagonalization with overlap
     ethr =  2.93E-05,  avg # of iterations =  8.7

     total cpu time spent up to now is       12.2 secs

     total energy              =     -22.79048475 Ry
     estimated scf accuracy    <       0.00017451 Ry

     iteration #  4     ecut=    50.00 Ry     beta= 0.70
     Davidson diagonalization with overlap
     c_bands:  1 eigenvalues not converged
     ethr =  2.18E-06,  avg # of iterations =  6.0

     total cpu time spent up to now is       12.3 secs

     total energy              =     -22.79049877 Ry
     estimated scf accuracy    <       0.00000126 Ry

     iteration #  5     ecut=    50.00 Ry     beta= 0.70
     Davidson diagonalization with overlap
     ethr =  1.58E-08,  avg # of iterations =  3.6

     total cpu time spent up to now is       12.4 secs

     total energy              =     -22.79050020 Ry
     estimated scf accuracy    <       0.00000004 Ry

     iteration #  6     ecut=    50.00 Ry     beta= 0.70
     Davidson diagonalization with overlap
     ethr =  5.38E-10,  avg # of iterations =  2.6

     total cpu time spent up to now is       12.6 secs

     total energy              =     -22.79050021 Ry
     estimated scf accuracy    <          1.4E-09 Ry

     iteration #  7     ecut=    50.00 Ry     beta= 0.70
     Davidson diagonalization with overlap
     ethr =  1.74E-11,  avg # of iterations =  2.7

     total cpu time spent up to now is       12.7 secs

     End of self-consistent calculation

          k = 0.0000 0.0000 0.0000 (  4459 PWs)   bands (ev):

   -23.8893 -11.9480  -7.2635  -7.2635  -0.9837  -0.2037   0.5835   0.9387

          k = 0.0000 0.0790 0.0000 (  4461 PWs)   bands (ev):

   -23.7831 -11.8196  -7.6904  -7.4913  -0.8394  -0.0572   0.7309   1.0856

          k = 0.0000 0.1580 0.0000 (  4485 PWs)   bands (ev):

   -23.4657 -11.4389  -8.8244  -8.0642  -0.4063   0.3818   1.1732   1.5257

          k = 0.0000 0.2369 0.0000 (  4463 PWs)   bands (ev):

   -22.9392 -10.8123 -10.3803  -8.7791   0.3150   1.1110   1.9101   2.2569

          k = 0.0000 0.3159 0.0000 (  4505 PWs)   bands (ev):

   -22.2078 -12.1315  -9.9554  -9.4792   1.3224   2.0968   2.7459   2.9399

          k = 0.0000 0.3949 0.0000 (  4515 PWs)   bands (ev):

   -21.2789 -13.9150 -10.0593  -8.8999   0.8081   2.6075   3.4647   3.7003

          k = 0.0000 0.4739 0.0000 (  4515 PWs)   bands (ev):

   -20.1672 -15.6327 -10.4700  -7.7343  -0.9767   3.4727   4.2171   5.0514

          k = 0.0000 0.5529 0.0000 (  4521 PWs)   bands (ev):

   -18.9450 -17.1674 -10.6809  -6.7587  -2.2835   3.3823   6.0382   6.9056

          k = 0.0684 0.1185 0.0000 (  4479 PWs)   bands (ev):

   -23.5714 -11.5652  -8.4170  -7.9442  -0.5506   0.2356   1.0258   1.3791

          k = 0.0684 0.1974 0.0000 (  4475 PWs)   bands (ev):

   -23.1495 -11.0612  -9.6718  -8.6813   0.0270   0.8201   1.6157   1.9653

          k = 0.0684 0.2764 0.0000 (  4480 PWs)   bands (ev):

   -22.5206 -11.2675 -10.3179  -9.4482   0.8920   1.6909   2.4998   2.8351

          k = 0.0684 0.3554 0.0000 (  4494 PWs)   bands (ev):

   -21.6903 -13.0038 -10.1188  -9.3572   1.6661   2.0413   2.8841   3.6742

          k = 0.0684 0.4344 0.0000 (  4506 PWs)   bands (ev):

   -20.6689 -14.7405 -10.6284  -8.2314  -0.1568   3.4568   4.0766   4.3209

          k = 0.0684 0.5134 0.0000 (  4506 PWs)   bands (ev):

   -19.4844 -16.3770 -10.9449  -7.0938  -1.7564   3.8900   5.1973   6.0360

          k = 0.0684 0.5923 0.0000 (  4502 PWs)   bands (ev):

   -18.4975 -17.5179 -11.0521  -6.4921  -2.5169   3.8413   7.0688   7.2246

          k = 0.1368 0.2369 0.0000 (  4473 PWs)   bands (ev):

   -22.6251 -10.7785 -10.4396  -9.6577   0.7487   1.5487   2.3531   2.6966

          k = 0.1368 0.3159 0.0000 (  4471 PWs)   bands (ev):

   -21.8973 -12.1840 -10.5747  -9.5896   1.7567   2.2287   2.5762   3.3849

          k = 0.1368 0.3949 0.0000 (  4495 PWs)   bands (ev):

   -20.9740 -13.7924 -11.2566  -8.5421   0.5243   3.0463   3.8655   4.7075

          k = 0.1368 0.4739 0.0000 (  4503 PWs)   bands (ev):

   -19.8721 -15.4232 -11.7053  -7.3776  -1.1384   4.5998   5.2509   5.4224

          k = 0.1368 0.5529 0.0000 (  4499 PWs)   bands (ev):

   -18.6654 -16.9116 -11.9301  -6.3791  -2.4033   5.1206   6.4439   7.1356

          k = 0.2052 0.3554 0.0000 (  4481 PWs)   bands (ev):

   -21.0764 -13.2012 -11.7656  -8.6480   0.8061   2.9047   3.7068   4.5636

          k = 0.2052 0.4344 0.0000 (  4479 PWs)   bands (ev):

   -20.0703 -14.4982 -12.5934  -7.5348  -0.6991   4.3279   5.0938   6.0338

          k = 0.2052 0.5134 0.0000 (  4497 PWs)   bands (ev):

   -18.9116 -15.9452 -13.0213  -6.3784  -2.1170   6.0021   6.5462   6.9212

          k = 0.2052 0.5923 0.0000 (  4484 PWs)   bands (ev):

   -17.9559 -17.0121 -13.1546  -5.7158  -2.8697   6.8420   7.2020   7.7840

          k = 0.2736 0.4739 0.0000 (  4469 PWs)   bands (ev):

   -19.0015 -15.2774 -13.7399  -6.3906  -1.9676   5.8659   6.3096   7.6018

          k = 0.2736 0.5529 0.0000 (  4478 PWs)   bands (ev):

   -17.8459 -16.3411 -14.2864  -5.2907  -3.1247   6.6670   7.5848   8.5881

          k = 0.3420 0.5923 0.0000 (  4449 PWs)   bands (ev):

   -16.8768 -16.8768 -14.9281  -4.1862  -4.1862   6.4661   8.8282   8.8282

     the Fermi energy is    -4.1862 ev

!    total energy              =     -22.79050021 Ry
     estimated scf accuracy    <          1.0E-11 Ry
     smearing contrib. (-TS)   =      -0.00005015 Ry
     internal energy E=F+TS    =     -22.79045006 Ry

     The total energy is F=E-TS. E is the sum of the following terms:
     one-electron contribution =    -391.87441583 Ry
     hartree contribution      =     196.56881080 Ry
     xc contribution           =      -7.03777027 Ry
     ewald contribution        =     179.55292524 Ry

     convergence has been achieved in   7 iterations

     Forces acting on atoms (cartesian axes, Ry/au):

     atom    1 type  1   force =    -0.00000000   -0.00000000    0.00000000
     atom    2 type  1   force =     0.00000000    0.00000000    0.00000000

     Total force =     0.000000     Total SCF correction =     0.000000


     Computing stress (Cartesian axis) and pressure

          total   stress  (Ry/bohr**3)                   (kbar)     P=       -7.47
  -0.00002149   0.00000000   0.00000000           -3.16        0.00        0.00
   0.00000000  -0.00002149   0.00000000            0.00       -3.16        0.00
  -0.00000000   0.00000000  -0.00010943           -0.00        0.00      -16.10


     Writing output data file ./work/LiC475.save/
 
     init_run     :      0.13s CPU      0.15s WALL (       2 calls)
     electrons    :     11.10s CPU     12.14s WALL (       8 calls)
     update_pot   :      0.07s CPU      0.08s WALL (       6 calls)
     forces       :      0.07s CPU      0.07s WALL (       8 calls)
     stress       :      0.18s CPU      0.19s WALL (       8 calls)

     Called by init_run:
     wfcinit      :      0.09s CPU      0.11s WALL (       2 calls)
     potinit      :      0.01s CPU      0.01s WALL (       2 calls)
     hinit0       :      0.01s CPU      0.01s WALL (       2 calls)

     Called by electrons:
     c_bands      :      9.53s CPU     10.29s WALL (      77 calls)
     sum_band     :      1.39s CPU      1.49s WALL (      77 calls)
     v_of_rho     :      0.14s CPU      0.16s WALL (      83 calls)
     mix_rho      :      0.03s CPU      0.03s WALL (      77 calls)

     Called by c_bands:
     init_us_2    :      0.08s CPU      0.09s WALL (    4644 calls)
     cegterg      :      9.29s CPU     10.02s WALL (    2081 calls)

     Called by *egterg:
     cdiaghg      :      0.81s CPU      0.87s WALL (    9300 calls)
     h_psi        :      7.90s CPU      8.52s WALL (    9572 calls)
     g_psi        :      0.02s CPU      0.02s WALL (    7437 calls)

     Called by h_psi:
     h_psi:calbec :      0.27s CPU      0.29s WALL (    9572 calls)
     vloc_psi     :      7.48s CPU      8.06s WALL (    9572 calls)
     add_vuspsi   :      0.07s CPU      0.08s WALL (    9572 calls)

     General routines
     calbec       :      0.31s CPU      0.33s WALL (   10652 calls)
     fft          :      0.13s CPU      0.14s WALL (     894 calls)
     ffts         :      0.01s CPU      0.01s WALL (      77 calls)
     fftw         :      8.27s CPU      8.91s WALL (  120250 calls)
 
     Parallel routines
     fft_scatt_xy :      0.55s CPU      0.60s WALL (  121221 calls)
     fft_scatt_yz :      4.78s CPU      5.14s WALL (  121221 calls)
 
     PWSCF        :     11.63s CPU     12.96s WALL

 
   This run was terminated on:  14:15:45  19Jan2024            

=------------------------------------------------------------------------------=
   JOB DONE.
=------------------------------------------------------------------------------=
