
     Program PWSCF v.6.7MaX starts on 19Jan2024 at 14:16:54 

     This program is part of the open-source Quantum ESPRESSO suite
     for quantum simulation of materials; please cite
         "P. Giannozzi et al., J. Phys.:Condens. Matter 21 395502 (2009);
         "P. Giannozzi et al., J. Phys.:Condens. Matter 29 465901 (2017);
          URL http://www.quantum-espresso.org", 
     in publications or presentations arising from this work. More details at
     http://www.quantum-espresso.org/quote

     Parallel version (MPI), running on    32 processors

     MPI processes distributed on     1 nodes
     R & G space division:  proc/nbgrp/npool/nimage =      32
     Waiting for input...
     Reading input from standard input

     Current dimensions of program PWSCF are:
     Max number of different atomic species (ntypx) = 10
     Max number of k-points (npk) =  40000
     Max angular momentum in pseudopotentials (lmaxx) =  3
     Message from routine read_pp_mesh:
     mesh size missing, using the one in header

     Subspace diagonalization in iterative solution of the eigenvalue problem:
     a serial algorithm will be used

 
     Parallelization info
     --------------------
     sticks:   dense  smooth     PW     G-vecs:    dense   smooth      PW
     Min           9       9      3                 1177     1177     191
     Max          10      10      4                 1232     1232     223
     Sum         313     313     97                38787    38787    6799
 


     bravais-lattice index     =            4
     lattice parameter (alat)  =       4.8100  a.u.
     unit-cell volume          =     811.4762 (a.u.)^3
     number of atoms/cell      =            2
     number of atomic types    =            1
     number of electrons       =         8.00
     number of Kohn-Sham states=            8
     kinetic-energy cutoff     =      50.0000  Ry
     charge density cutoff     =     200.0000  Ry
     scf convergence threshold =      1.0E-08
     mixing beta               =       0.7000
     number of iterations used =            8  plain     mixing
     energy convergence thresh.=      1.0E-04
     force convergence thresh. =      1.0E-08
     press convergence thresh. =      1.0E-03
     Exchange-correlation= PBE
                           (   1   4   3   4   0   0   0)
     nstep                     =           50


     celldm(1)=   4.810000  celldm(2)=   0.000000  celldm(3)=   8.419958
     celldm(4)=   0.000000  celldm(5)=   0.000000  celldm(6)=   0.000000

     crystal axes: (cart. coord. in units of alat)
               a(1) = (   1.000000   0.000000   0.000000 )  
               a(2) = (  -0.500000   0.866025   0.000000 )  
               a(3) = (   0.000000   0.000000   8.419958 )  

     reciprocal axes: (cart. coord. in units 2 pi/alat)
               b(1) = (  1.000000  0.577350  0.000000 )  
               b(2) = (  0.000000  1.154701  0.000000 )  
               b(3) = (  0.000000  0.000000  0.118765 )  


     PseudoPot. # 1 for C  read from file:
     /home/yhkim/qe-6.7/pseudo/ONCV1/1.2/C_ONCV_PBE-1.2.upf
     MD5 check sum: 1a5f83a7b1f58d24996abe00ed223ac6
     Pseudo is Norm-conserving, Zval =  4.0
     Generated using ONCVPSP code by D. R. Hamann
     Using radial grid of  602 points,  4 beta functions with: 
                l(1) =   0
                l(2) =   0
                l(3) =   1
                l(4) =   1

     atomic species   valence    mass     pseudopotential
        C              4.00    12.01070     C ( 1.00)

     24 Sym. Ops., with inversion, found



   Cartesian axes

     site n.     atom                  positions (alat units)
         1           C   tau(   1) = (  -0.0000000   0.5773503   4.2099792  )
         2           C   tau(   2) = (   0.5000000   0.2886751   4.2099792  )

     number of k points=    27  Methfessel-Paxton smearing, width (Ry)=  0.0100
                       cart. coord. in units 2pi/alat
        k(    1) = (   0.0000000   0.0000000   0.0000000), wk =   0.0088889
        k(    2) = (   0.0000000   0.0769800   0.0000000), wk =   0.0533333
        k(    3) = (   0.0000000   0.1539601   0.0000000), wk =   0.0533333
        k(    4) = (   0.0000000   0.2309401   0.0000000), wk =   0.0533333
        k(    5) = (   0.0000000   0.3079201   0.0000000), wk =   0.0533333
        k(    6) = (   0.0000000   0.3849002   0.0000000), wk =   0.0533333
        k(    7) = (   0.0000000   0.4618802   0.0000000), wk =   0.0533333
        k(    8) = (   0.0000000   0.5388603   0.0000000), wk =   0.0533333
        k(    9) = (   0.0666667   0.1154701   0.0000000), wk =   0.0533333
        k(   10) = (   0.0666667   0.1924501   0.0000000), wk =   0.1066667
        k(   11) = (   0.0666667   0.2694301   0.0000000), wk =   0.1066667
        k(   12) = (   0.0666667   0.3464102   0.0000000), wk =   0.1066667
        k(   13) = (   0.0666667   0.4233902   0.0000000), wk =   0.1066667
        k(   14) = (   0.0666667   0.5003702   0.0000000), wk =   0.1066667
        k(   15) = (   0.0666667   0.5773503   0.0000000), wk =   0.0533333
        k(   16) = (   0.1333333   0.2309401   0.0000000), wk =   0.0533333
        k(   17) = (   0.1333333   0.3079201   0.0000000), wk =   0.1066667
        k(   18) = (   0.1333333   0.3849002   0.0000000), wk =   0.1066667
        k(   19) = (   0.1333333   0.4618802   0.0000000), wk =   0.1066667
        k(   20) = (   0.1333333   0.5388603   0.0000000), wk =   0.1066667
        k(   21) = (   0.2000000   0.3464102   0.0000000), wk =   0.0533333
        k(   22) = (   0.2000000   0.4233902   0.0000000), wk =   0.1066667
        k(   23) = (   0.2000000   0.5003702   0.0000000), wk =   0.1066667
        k(   24) = (   0.2000000   0.5773503   0.0000000), wk =   0.0533333
        k(   25) = (   0.2666667   0.4618802   0.0000000), wk =   0.0533333
        k(   26) = (   0.2666667   0.5388603   0.0000000), wk =   0.1066667
        k(   27) = (   0.3333333   0.5773503   0.0000000), wk =   0.0177778

     Dense  grid:    38787 G-vectors     FFT dimensions: (  24,  24, 192)

     Estimated max dynamical RAM per process >       2.02 MB

     Estimated total dynamical RAM >      64.57 MB
 ----2D----2D----2D----2D----2D----2D----2D----2D----2D----2D----2D----2D
  The code is running with the 2D cutoff
  Please refer to:
  Sohier, T., Calandra, M., & Mauri, F. (2017), 
  Density functional perturbation theory for gated two-dimensional heterostructu
 res:
  Theoretical developments and application to flexural phonons in graphene.
  Physical Review B, 96(7), 75448. https://doi.org/10.1103/PhysRevB.96.075448
 ----2D----2D----2D----2D----2D----2D----2D----2D----2D----2D----2D----2D

     Initial potential from superposition of free atoms

     starting charge    7.98607, renormalised to    8.00000

     negative rho (up, down):  1.181E-04 0.000E+00
     Starting wfcs are random

     total cpu time spent up to now is        0.1 secs

     Self-consistent Calculation

     iteration #  1     ecut=    50.00 Ry     beta= 0.70
     Davidson diagonalization with overlap
     ethr =  1.00E-02,  avg # of iterations = 11.7

     negative rho (up, down):  1.067E-07 0.000E+00

     total cpu time spent up to now is        0.5 secs

     total energy              =     -22.75789579 Ry
     estimated scf accuracy    <       0.12474144 Ry

     iteration #  2     ecut=    50.00 Ry     beta= 0.70
     Davidson diagonalization with overlap
     ethr =  1.56E-03,  avg # of iterations =  2.4

     total cpu time spent up to now is        0.7 secs

     total energy              =     -22.77840839 Ry
     estimated scf accuracy    <       0.00202105 Ry

     iteration #  3     ecut=    50.00 Ry     beta= 0.70
     Davidson diagonalization with overlap
     ethr =  2.53E-05,  avg # of iterations =  9.3

     total cpu time spent up to now is        0.9 secs

     total energy              =     -22.78155932 Ry
     estimated scf accuracy    <       0.00013523 Ry

     iteration #  4     ecut=    50.00 Ry     beta= 0.70
     Davidson diagonalization with overlap
     ethr =  1.69E-06,  avg # of iterations =  6.2

     total cpu time spent up to now is        1.1 secs

     total energy              =     -22.78159618 Ry
     estimated scf accuracy    <       0.00000017 Ry

     iteration #  5     ecut=    50.00 Ry     beta= 0.70
     Davidson diagonalization with overlap
     ethr =  2.16E-09,  avg # of iterations =  4.8

     total cpu time spent up to now is        1.3 secs

     total energy              =     -22.78159866 Ry
     estimated scf accuracy    <       0.00000003 Ry

     iteration #  6     ecut=    50.00 Ry     beta= 0.70
     Davidson diagonalization with overlap
     ethr =  3.47E-10,  avg # of iterations =  2.0

     total cpu time spent up to now is        1.4 secs

     End of self-consistent calculation

          k = 0.0000 0.0000 0.0000 (  4939 PWs)   bands (ev):

   -23.3015 -11.5126  -7.6079  -7.6079  -0.9603  -0.2003   0.5947   0.9485

          k = 0.0000 0.0770 0.0000 (  4935 PWs)   bands (ev):

   -23.2025 -11.3962  -8.0203  -7.8087  -0.8263  -0.0648   0.7314   1.0843

          k = 0.0000 0.1540 0.0000 (  4885 PWs)   bands (ev):

   -22.9061 -11.0489  -9.1045  -8.3194  -0.4246   0.3409   1.1412   1.4913

          k = 0.0000 0.2309 0.0000 (  4885 PWs)   bands (ev):

   -22.4148 -10.5837 -10.4796  -8.9625   0.2443   1.0142   1.8236   2.1658

          k = 0.0000 0.3079 0.0000 (  4853 PWs)   bands (ev):

   -21.7327 -12.2278  -9.7019  -9.5889   1.1777   1.6604   2.0225   2.6104

          k = 0.0000 0.3849 0.0000 (  4852 PWs)   bands (ev):

   -20.8692 -13.8965 -10.1129  -8.7491   0.0411   2.2568   2.4361   3.1823

          k = 0.0000 0.4619 0.0000 (  4802 PWs)   bands (ev):

   -19.8445 -15.4894 -10.4821  -7.7007  -1.5358   2.0823   3.8411   4.6466

          k = 0.0000 0.5389 0.0000 (  4802 PWs)   bands (ev):

   -18.7656 -16.8629 -10.6727  -6.8352  -2.6852   1.9648   5.5370   6.3472

          k = 0.0667 0.1155 0.0000 (  4899 PWs)   bands (ev):

   -23.0048 -11.1648  -8.7223  -8.2107  -0.5584   0.2057   1.0046   1.3557

          k = 0.0667 0.1925 0.0000 (  4875 PWs)   bands (ev):

   -22.6109 -10.7060  -9.9219  -8.8712  -0.0229   0.7458   1.5509   1.8975

          k = 0.0667 0.2694 0.0000 (  4864 PWs)   bands (ev):

   -22.0242 -11.4269 -10.0313  -9.5658   0.7790   1.5465   2.3693   2.4013

          k = 0.0667 0.3464 0.0000 (  4858 PWs)   bands (ev):

   -21.2509 -13.0525 -10.1752  -9.1619   0.7927   1.8429   2.6414   2.9059

          k = 0.0667 0.4234 0.0000 (  4821 PWs)   bands (ev):

   -20.3043 -14.6694 -10.6382  -8.1450  -0.8213   2.6239   3.1879   3.9731

          k = 0.0667 0.5004 0.0000 (  4805 PWs)   bands (ev):

   -19.2251 -16.1729 -10.9271  -7.1274  -2.2329   2.4578   4.7565   5.5492

          k = 0.0667 0.5774 0.0000 (  4806 PWs)   bands (ev):

   -18.4153 -17.1278 -11.0247  -6.5983  -2.8999   2.3980   6.4750   6.6409

          k = 0.1333 0.2309 0.0000 (  4889 PWs)   bands (ev):

   -22.1216 -10.9916 -10.1421  -9.7460   0.6460   1.4188   2.2345   2.6609

          k = 0.1333 0.3079 0.0000 (  4859 PWs)   bands (ev):

   -21.4433 -12.3190 -10.5833  -9.3708   1.2674   1.5798   2.3586   3.1891

          k = 0.1333 0.3849 0.0000 (  4831 PWs)   bands (ev):

   -20.5852 -13.8130 -11.2172  -8.4237  -0.2416   2.7731   3.5537   3.9616

          k = 0.1333 0.4619 0.0000 (  4821 PWs)   bands (ev):

   -19.5693 -15.3187 -11.6371  -7.3766  -1.7121   3.7264   4.2388   4.9828

          k = 0.1333 0.5389 0.0000 (  4819 PWs)   bands (ev):

   -18.5016 -16.6477 -11.8473  -6.4885  -2.8274   3.6136   5.9063   6.5298

          k = 0.2000 0.3464 0.0000 (  4819 PWs)   bands (ev):

   -20.6796 -13.3133 -11.6480  -8.5182  -0.0074   2.6426   3.4086   4.2805

          k = 0.2000 0.4234 0.0000 (  4836 PWs)   bands (ev):

   -19.7481 -14.5234 -12.4186  -7.5153  -1.3518   3.9580   4.6805   5.4894

          k = 0.2000 0.5004 0.0000 (  4835 PWs)   bands (ev):

   -18.6908 -15.8329 -12.8358  -6.4781  -2.6113   5.2803   5.5443   5.9944

          k = 0.2000 0.5774 0.0000 (  4842 PWs)   bands (ev):

   -17.8924 -16.7296 -12.9665  -5.8919  -3.2764   5.2401   6.5824   7.0886

          k = 0.2667 0.4619 0.0000 (  4841 PWs)   bands (ev):

   -18.7656 -15.3113 -13.4209  -6.4869  -2.4986   5.3729   5.7845   7.0730

          k = 0.2667 0.5389 0.0000 (  4834 PWs)   bands (ev):

   -17.7310 -16.2700 -13.9234  -5.5010  -3.5366   6.1380   6.8170   7.0551

          k = 0.3333 0.5774 0.0000 (  4824 PWs)   bands (ev):

   -16.8522 -16.8522 -14.4180  -4.5045  -4.5045   5.9801   7.6509   7.6510

     the Fermi energy is    -4.5045 ev

!    total energy              =     -22.78159866 Ry
     estimated scf accuracy    <          6.4E-10 Ry
     smearing contrib. (-TS)   =      -0.00005015 Ry
     internal energy E=F+TS    =     -22.78154851 Ry

     The total energy is F=E-TS. E is the sum of the following terms:
     one-electron contribution =    -362.75509827 Ry
     hartree contribution      =     181.93676664 Ry
     xc contribution           =      -6.87690067 Ry
     ewald contribution        =     164.91368379 Ry

     convergence has been achieved in   6 iterations

     Forces acting on atoms (cartesian axes, Ry/au):

     atom    1 type  1   force =     0.00000000    0.00000000    0.00000000
     atom    2 type  1   force =     0.00000000    0.00000000    0.00000000

     Total force =     0.000000     Total SCF correction =     0.000000


     Computing stress (Cartesian axis) and pressure

          total   stress  (Ry/bohr**3)                   (kbar)     P=      -49.37
  -0.00045424   0.00000000   0.00000000          -66.82        0.00        0.00
   0.00000000  -0.00045424  -0.00000000            0.00      -66.82       -0.00
   0.00000000   0.00000000  -0.00009832            0.00        0.00      -14.46


     BFGS Geometry Optimization
     Energy error            =      0.0E+00
     Gradient error          =      0.0E+00
     Cell gradient error     =      4.5E-04


     number of scf cycles    =   1
     number of bfgs steps    =   0

     enthalpy new            =     -22.7815986626 Ry

     new trust radius        =       0.0646979953 bohr
     new conv_thr            =       0.0000000100 Ry

     new unit-cell volume =    793.15074 a.u.^3 (   117.53281 Ang^3 )
     density =      0.33938 g/cm^3

CELL_PARAMETERS (alat=  4.81000000)
   0.988644064   0.000000000   0.000000000
  -0.494322032   0.856190875   0.000000000
   0.000000000   0.000000000   8.419958420

ATOMIC_POSITIONS (crystal)
C             0.3333333333        0.6666666667        0.5000000000
C             0.6666666667        0.3333333333        0.5000000000



     Writing output data file ./work/LiC481.save/
     NEW-OLD atomic charge density approx. for the potential

     negative rho (up, down):  5.154E-06 0.000E+00
     extrapolated charge    7.81548, renormalised to    8.00000

     total cpu time spent up to now is        1.5 secs

     Self-consistent Calculation

     iteration #  1     ecut=    50.00 Ry     beta= 0.70
     Davidson diagonalization with overlap
     c_bands:  1 eigenvalues not converged
     c_bands:  2 eigenvalues not converged
     c_bands:  1 eigenvalues not converged
     c_bands:  4 eigenvalues not converged
     c_bands:  1 eigenvalues not converged
     c_bands:  1 eigenvalues not converged
     c_bands:  1 eigenvalues not converged
     c_bands:  2 eigenvalues not converged
     c_bands:  1 eigenvalues not converged
     c_bands:  2 eigenvalues not converged
     ethr =  1.00E-06,  avg # of iterations = 16.7

     negative rho (up, down):  3.577E-07 0.000E+00

     total cpu time spent up to now is        2.0 secs

     total energy              =     -22.77360902 Ry
     estimated scf accuracy    <       0.00806939 Ry

     iteration #  2     ecut=    50.00 Ry     beta= 0.70
     Davidson diagonalization with overlap
     ethr =  1.01E-04,  avg # of iterations = 10.1

     negative rho (up, down):  6.442E-08 0.000E+00

     total cpu time spent up to now is        2.2 secs

     total energy              =     -22.78922363 Ry
     estimated scf accuracy    <       0.00730715 Ry

     iteration #  3     ecut=    50.00 Ry     beta= 0.70
     Davidson diagonalization with overlap
     ethr =  9.13E-05,  avg # of iterations =  1.0

     total cpu time spent up to now is        2.3 secs

     total energy              =     -22.78861793 Ry
     estimated scf accuracy    <       0.00161569 Ry

     iteration #  4     ecut=    50.00 Ry     beta= 0.70
     Davidson diagonalization with overlap
     ethr =  2.02E-05,  avg # of iterations =  2.9

     total cpu time spent up to now is        2.5 secs

     total energy              =     -22.78882836 Ry
     estimated scf accuracy    <       0.00003397 Ry

     iteration #  5     ecut=    50.00 Ry     beta= 0.70
     Davidson diagonalization with overlap
     ethr =  4.25E-07,  avg # of iterations =  5.0

     total cpu time spent up to now is        2.6 secs

     total energy              =     -22.78883386 Ry
     estimated scf accuracy    <       0.00002540 Ry

     iteration #  6     ecut=    50.00 Ry     beta= 0.70
     Davidson diagonalization with overlap
     ethr =  3.17E-07,  avg # of iterations =  1.0

     total cpu time spent up to now is        2.7 secs

     total energy              =     -22.78881844 Ry
     estimated scf accuracy    <       0.00002567 Ry

     iteration #  7     ecut=    50.00 Ry     beta= 0.70
     Davidson diagonalization with overlap
     ethr =  3.17E-07,  avg # of iterations =  3.5

     total cpu time spent up to now is        2.9 secs

     total energy              =     -22.78883406 Ry
     estimated scf accuracy    <       0.00001722 Ry

     iteration #  8     ecut=    50.00 Ry     beta= 0.70
     Davidson diagonalization with overlap
     ethr =  2.15E-07,  avg # of iterations =  1.0

     total cpu time spent up to now is        3.0 secs

     total energy              =     -22.78883976 Ry
     estimated scf accuracy    <       0.00003086 Ry

     iteration #  9     ecut=    50.00 Ry     beta= 0.70
     Davidson diagonalization with overlap
     ethr =  2.15E-07,  avg # of iterations =  1.0

     total cpu time spent up to now is        3.1 secs

     total energy              =     -22.78882202 Ry
     estimated scf accuracy    <       0.00004676 Ry

     iteration # 10     ecut=    50.00 Ry     beta= 0.70
     Davidson diagonalization with overlap
     ethr =  2.15E-07,  avg # of iterations =  2.0

     total cpu time spent up to now is        3.2 secs

     total energy              =     -22.78882236 Ry
     estimated scf accuracy    <       0.00000376 Ry

     iteration # 11     ecut=    50.00 Ry     beta= 0.70
     Davidson diagonalization with overlap
     ethr =  4.70E-08,  avg # of iterations =  2.0

     total cpu time spent up to now is        3.4 secs

     total energy              =     -22.78882307 Ry
     estimated scf accuracy    <       0.00000015 Ry

     iteration # 12     ecut=    50.00 Ry     beta= 0.70
     Davidson diagonalization with overlap
     ethr =  1.86E-09,  avg # of iterations =  2.0

     total cpu time spent up to now is        3.5 secs

     total energy              =     -22.78882315 Ry
     estimated scf accuracy    <       0.00000010 Ry

     iteration # 13     ecut=    50.00 Ry     beta= 0.70
     Davidson diagonalization with overlap
     ethr =  1.19E-09,  avg # of iterations =  1.0

     total cpu time spent up to now is        3.6 secs

     total energy              =     -22.78882315 Ry
     estimated scf accuracy    <       0.00000019 Ry

     iteration # 14     ecut=    50.00 Ry     beta= 0.70
     Davidson diagonalization with overlap
     ethr =  1.19E-09,  avg # of iterations =  1.0

     total cpu time spent up to now is        3.7 secs

     total energy              =     -22.78882305 Ry
     estimated scf accuracy    <       0.00000018 Ry

     iteration # 15     ecut=    50.00 Ry     beta= 0.70
     Davidson diagonalization with overlap
     ethr =  1.19E-09,  avg # of iterations =  2.0

     total cpu time spent up to now is        3.8 secs

     End of self-consistent calculation

          k = 0.0000 0.0000 0.0000 (  4939 PWs)   bands (ev):

   -23.4742 -11.6391  -7.5155  -7.5155  -0.9670  -0.2002   0.5937   0.9475

          k =-0.0000 0.0779 0.0000 (  4935 PWs)   bands (ev):

   -23.3731 -11.5194  -7.9316  -7.7236  -0.8300  -0.0616   0.7334   1.0865

          k =-0.0000 0.1557 0.0000 (  4885 PWs)   bands (ev):

   -23.0705 -11.1621  -9.0288  -8.2524  -0.4191   0.3538   1.1526   1.5032

          k =-0.0000 0.2336 0.0000 (  4885 PWs)   bands (ev):

   -22.5688 -10.5763 -10.5303  -8.9169   0.2650   1.0434   1.8509   2.1944

          k =-0.0000 0.3115 0.0000 (  4853 PWs)   bands (ev):

   -21.8722 -12.2032  -9.7755  -9.5635   1.2199   1.8701   2.1537   2.8174

          k =-0.0000 0.3893 0.0000 (  4852 PWs)   bands (ev):

   -20.9892 -13.9045 -10.1036  -8.7933   0.2643   2.4199   2.7472   3.2651

          k =-0.0000 0.4672 0.0000 (  4802 PWs)   bands (ev):

   -19.9387 -15.5333 -10.4842  -7.7108  -1.3725   2.4917   3.9478   4.7654

          k =-0.0000 0.5450 0.0000 (  4802 PWs)   bands (ev):

   -18.8176 -16.9541 -10.6804  -6.8137  -2.5672   2.3789   5.6826   6.5109

          k = 0.0674 0.1168 0.0000 (  4899 PWs)   bands (ev):

   -23.1713 -11.2814  -8.6402  -8.1402  -0.5560   0.2154   1.0129   1.3643

          k = 0.0674 0.1947 0.0000 (  4875 PWs)   bands (ev):

   -22.7691 -10.8093  -9.8550  -8.8229  -0.0083   0.7684   1.5719   1.9191

          k = 0.0674 0.2725 0.0000 (  4864 PWs)   bands (ev):

   -22.1699 -11.3849 -10.1147  -9.5385   0.8120   1.5901   2.4096   2.6718

          k = 0.0674 0.3504 0.0000 (  4858 PWs)   bands (ev):

   -21.3798 -13.0412 -10.1653  -9.2191   1.0469   1.9007   2.7121   3.3013

          k = 0.0674 0.4283 0.0000 (  4821 PWs)   bands (ev):

   -20.4110 -14.6922 -10.6414  -8.1702  -0.6280   3.0160   3.2997   4.0753

          k = 0.0674 0.5061 0.0000 (  4805 PWs)   bands (ev):

   -19.3004 -16.2348 -10.9382  -7.1178  -2.0936   2.8769   4.8839   5.6919

          k = 0.0674 0.5840 0.0000 (  4806 PWs)   bands (ev):

   -18.4421 -17.2408 -11.0385  -6.5682  -2.7878   2.8193   6.6477   6.8106

          k = 0.1349 0.2336 0.0000 (  4889 PWs)   bands (ev):

   -22.2695 -10.9343 -10.2288  -9.7270   0.6760   1.4575   2.2708   2.6110

          k = 0.1349 0.3115 0.0000 (  4859 PWs)   bands (ev):

   -21.5765 -12.2831 -10.5876  -9.4345   1.5467   1.6313   2.4212   3.2482

          k = 0.1349 0.3893 0.0000 (  4831 PWs)   bands (ev):

   -20.6991 -13.8090 -11.2351  -8.4583  -0.0191   2.8527   3.6453   4.3735

          k = 0.1349 0.4672 0.0000 (  4821 PWs)   bands (ev):

   -19.6576 -15.3509 -11.6633  -7.3770  -1.5450   4.1389   4.3774   5.1116

          k = 0.1349 0.5450 0.0000 (  4819 PWs)   bands (ev):

   -18.5493 -16.7261 -11.8777  -6.4570  -2.7037   4.0539   6.0624   6.7064

          k = 0.2023 0.3504 0.0000 (  4819 PWs)   bands (ev):

   -20.7958 -13.2834 -11.6882  -8.5558   0.2283   2.7189   3.4963   4.3650

          k = 0.2023 0.4283 0.0000 (  4836 PWs)   bands (ev):

   -19.8423 -14.5178 -12.4764  -7.5213  -1.1630   4.0657   4.8015   5.7506

          k = 0.2023 0.5061 0.0000 (  4835 PWs)   bands (ev):

   -18.7550 -15.8663 -12.8975  -6.4493  -2.4678   5.6096   5.8290   6.1549

          k = 0.2023 0.5840 0.0000 (  4842 PWs)   bands (ev):

   -17.9137 -16.8096 -13.0289  -5.8414  -3.1585   5.7085   6.7616   7.2934

          k = 0.2697 0.4672 0.0000 (  4841 PWs)   bands (ev):

   -18.8345 -15.3042 -13.5195  -6.4596  -2.3452   5.5166   5.9371   7.2279

          k = 0.2697 0.5450 0.0000 (  4834 PWs)   bands (ev):

   -17.7652 -16.2910 -14.0362  -5.4405  -3.4174   6.2916   7.0864   7.4684

          k = 0.3372 0.5840 0.0000 (  4824 PWs)   bands (ev):

   -16.8622 -16.8622 -14.5691  -4.4130  -4.4130   6.1215   8.0181   8.0181

     the Fermi energy is    -4.4130 ev

!    total energy              =     -22.78882307 Ry
     estimated scf accuracy    <          2.0E-10 Ry
     smearing contrib. (-TS)   =      -0.00005015 Ry
     internal energy E=F+TS    =     -22.78877292 Ry

     The total energy is F=E-TS. E is the sum of the following terms:
     one-electron contribution =    -371.22634832 Ry
     hartree contribution      =     186.19291477 Ry
     xc contribution           =      -6.92418075 Ry
     ewald contribution        =     169.16884138 Ry

     convergence has been achieved in  15 iterations

     Forces acting on atoms (cartesian axes, Ry/au):

     atom    1 type  1   force =     0.00000000    0.00000000    0.00000000
     atom    2 type  1   force =     0.00000000    0.00000000    0.00000000

     Total force =     0.000000     Total SCF correction =     0.000000


     Computing stress (Cartesian axis) and pressure

          total   stress  (Ry/bohr**3)                   (kbar)     P=      -37.31
  -0.00033164  -0.00000000   0.00000000          -48.79       -0.00        0.00
  -0.00000000  -0.00033164  -0.00000000           -0.00      -48.79       -0.00
   0.00000000  -0.00000000  -0.00009756            0.00       -0.00      -14.35

     Energy error            =      7.2E-03
     Gradient error          =      0.0E+00
     Cell gradient error     =      3.3E-04


     number of scf cycles    =   2
     number of bfgs steps    =   1

     enthalpy old            =     -22.7815986626 Ry
     enthalpy new            =     -22.7888230681 Ry

     CASE: enthalpy_new < enthalpy_old

     new trust radius        =       0.0711677948 bohr
     new conv_thr            =            1.0E-10 Ry

     new unit-cell volume =    773.23442 a.u.^3 (   114.58152 Ang^3 )
     density =      0.34812 g/cm^3

CELL_PARAMETERS (alat=  4.81000000)
   0.976152535  -0.000000000   0.000000000
  -0.488076267   0.845372893   0.000000000
   0.000000000   0.000000000   8.419958420

ATOMIC_POSITIONS (crystal)
C             0.3333333333        0.6666666667        0.5000000000
C             0.6666666667        0.3333333333        0.5000000000



     Writing output data file ./work/LiC481.save/
     NEW-OLD atomic charge density approx. for the potential

     negative rho (up, down):  3.493E-06 0.000E+00
     extrapolated charge    7.79430, renormalised to    8.00000

     total cpu time spent up to now is        3.9 secs

     Self-consistent Calculation

     iteration #  1     ecut=    50.00 Ry     beta= 0.70
     Davidson diagonalization with overlap
     c_bands:  1 eigenvalues not converged
     c_bands:  1 eigenvalues not converged
     c_bands:  1 eigenvalues not converged
     c_bands:  4 eigenvalues not converged
     c_bands:  1 eigenvalues not converged
     c_bands:  1 eigenvalues not converged
     c_bands:  2 eigenvalues not converged
     c_bands:  2 eigenvalues not converged
     c_bands:  1 eigenvalues not converged
     c_bands:  1 eigenvalues not converged
     c_bands:  2 eigenvalues not converged
     c_bands:  1 eigenvalues not converged
     c_bands:  1 eigenvalues not converged
     c_bands:  1 eigenvalues not converged
     ethr =  1.00E-06,  avg # of iterations = 17.3

     negative rho (up, down):  1.683E-07 0.000E+00

     total cpu time spent up to now is        4.4 secs

     total energy              =     -22.77507674 Ry
     estimated scf accuracy    <       0.00995847 Ry

     iteration #  2     ecut=    50.00 Ry     beta= 0.70
     Davidson diagonalization with overlap
     ethr =  1.24E-04,  avg # of iterations =  9.8

     negative rho (up, down):  2.583E-08 0.000E+00

     total cpu time spent up to now is        4.6 secs

     total energy              =     -22.79443828 Ry
     estimated scf accuracy    <       0.00913790 Ry

     iteration #  3     ecut=    50.00 Ry     beta= 0.70
     Davidson diagonalization with overlap
     ethr =  1.14E-04,  avg # of iterations =  1.1

     total cpu time spent up to now is        4.8 secs

     total energy              =     -22.79368446 Ry
     estimated scf accuracy    <       0.00200947 Ry

     iteration #  4     ecut=    50.00 Ry     beta= 0.70
     Davidson diagonalization with overlap
     ethr =  2.51E-05,  avg # of iterations =  3.0

     total cpu time spent up to now is        4.9 secs

     total energy              =     -22.79395322 Ry
     estimated scf accuracy    <       0.00003667 Ry

     iteration #  5     ecut=    50.00 Ry     beta= 0.70
     Davidson diagonalization with overlap
     ethr =  4.58E-07,  avg # of iterations =  4.0

     total cpu time spent up to now is        5.0 secs

     total energy              =     -22.79396453 Ry
     estimated scf accuracy    <       0.00002337 Ry

     iteration #  6     ecut=    50.00 Ry     beta= 0.70
     Davidson diagonalization with overlap
     ethr =  2.92E-07,  avg # of iterations =  1.0

     total cpu time spent up to now is        5.2 secs

     total energy              =     -22.79395072 Ry
     estimated scf accuracy    <       0.00003271 Ry

     iteration #  7     ecut=    50.00 Ry     beta= 0.70
     Davidson diagonalization with overlap
     ethr =  2.92E-07,  avg # of iterations =  2.0

     total cpu time spent up to now is        5.3 secs

     total energy              =     -22.79395081 Ry
     estimated scf accuracy    <       0.00001319 Ry

     iteration #  8     ecut=    50.00 Ry     beta= 0.70
     Davidson diagonalization with overlap
     ethr =  1.65E-07,  avg # of iterations =  1.0

     total cpu time spent up to now is        5.4 secs

     total energy              =     -22.79395037 Ry
     estimated scf accuracy    <       0.00000516 Ry

     iteration #  9     ecut=    50.00 Ry     beta= 0.70
     Davidson diagonalization with overlap
     ethr =  6.45E-08,  avg # of iterations =  1.0

     total cpu time spent up to now is        5.5 secs

     total energy              =     -22.79395029 Ry
     estimated scf accuracy    <       0.00000094 Ry

     iteration # 10     ecut=    50.00 Ry     beta= 0.70
     Davidson diagonalization with overlap
     ethr =  1.17E-08,  avg # of iterations =  2.0

     total cpu time spent up to now is        5.6 secs

     total energy              =     -22.79395040 Ry
     estimated scf accuracy    <       0.00000004 Ry

     iteration # 11     ecut=    50.00 Ry     beta= 0.70
     Davidson diagonalization with overlap
     ethr =  5.35E-10,  avg # of iterations =  2.7

     total cpu time spent up to now is        5.7 secs

     total energy              =     -22.79395041 Ry
     estimated scf accuracy    <          7.2E-09 Ry

     iteration # 12     ecut=    50.00 Ry     beta= 0.70
     Davidson diagonalization with overlap
     ethr =  9.06E-11,  avg # of iterations =  1.5

     total cpu time spent up to now is        5.9 secs

     total energy              =     -22.79395041 Ry
     estimated scf accuracy    <          9.2E-09 Ry

     iteration # 13     ecut=    50.00 Ry     beta= 0.70
     Davidson diagonalization with overlap
     ethr =  9.06E-11,  avg # of iterations =  2.0

     total cpu time spent up to now is        6.0 secs

     total energy              =     -22.79395041 Ry
     estimated scf accuracy    <       0.00000004 Ry

     iteration # 14     ecut=    50.00 Ry     beta= 0.70
     Davidson diagonalization with overlap
     ethr =  9.06E-11,  avg # of iterations =  2.0

     total cpu time spent up to now is        6.1 secs

     total energy              =     -22.79395041 Ry
     estimated scf accuracy    <          3.2E-10 Ry

     iteration # 15     ecut=    50.00 Ry     beta= 0.70
     Davidson diagonalization with overlap
     ethr =  4.06E-12,  avg # of iterations =  2.0

     total cpu time spent up to now is        6.2 secs

     End of self-consistent calculation

          k = 0.0000 0.0000 0.0000 (  4939 PWs)   bands (ev):

   -23.6673 -11.7829  -7.4056  -7.4056  -0.9741  -0.1998   0.5933   0.9471

          k = 0.0000 0.0789 0.0000 (  4935 PWs)   bands (ev):

   -23.5640 -11.6595  -7.8264  -7.6223  -0.8337  -0.0575   0.7366   1.0897

          k = 0.0000 0.1577 0.0000 (  4885 PWs)   bands (ev):

   -23.2544 -11.2908  -8.9395  -8.1718  -0.4124   0.3689   1.1666   1.5174

          k = 0.0000 0.2366 0.0000 (  4885 PWs)   bands (ev):

   -22.7411 -10.6861 -10.4668  -8.8610   0.2890   1.0770   1.8829   2.2274

          k = 0.0000 0.3154 0.0000 (  4853 PWs)   bands (ev):

   -22.0280 -12.1729  -9.8591  -9.5306   1.2685   2.0063   2.4045   2.8819

          k = 0.0000 0.3943 0.0000 (  4852 PWs)   bands (ev):

   -21.1234 -13.9109 -10.0893  -8.8434   0.5180   2.5131   3.1924   3.3602

          k = 0.0000 0.4732 0.0000 (  4802 PWs)   bands (ev):

   -20.0440 -15.5800 -10.4827  -7.7219  -1.1870   2.9562   4.0719   4.9010

          k = 0.0000 0.5520 0.0000 (  4802 PWs)   bands (ev):

   -18.8752 -17.0544 -10.6855  -6.7884  -2.4336   2.8514   5.8493   6.6974

          k = 0.0683 0.1183 0.0000 (  4899 PWs)   bands (ev):

   -23.3575 -11.4139  -8.5432  -8.0557  -0.5528   0.2269   1.0233   1.3749

          k = 0.0683 0.1972 0.0000 (  4875 PWs)   bands (ev):

   -22.9460 -10.9267  -9.7760  -8.7638   0.0089   0.7946   1.5967   1.9444

          k = 0.0683 0.2760 0.0000 (  4864 PWs)   bands (ev):

   -22.3329 -11.3347 -10.2095  -9.5034   0.8500   1.6395   2.4562   2.7809

          k = 0.0683 0.3549 0.0000 (  4858 PWs)   bands (ev):

   -21.5238 -13.0260 -10.1500  -9.2839   1.3358   1.9671   2.7937   3.5876

          k = 0.0683 0.4337 0.0000 (  4821 PWs)   bands (ev):

   -20.5302 -14.7154 -10.6410  -8.1985  -0.4081   3.3124   3.5766   4.1921

          k = 0.0683 0.5126 0.0000 (  4805 PWs)   bands (ev):

   -19.3847 -16.3018 -10.9469  -7.1062  -1.9357   3.3539   5.0303   5.8547

          k = 0.0683 0.5915 0.0000 (  4806 PWs)   bands (ev):

   -18.4680 -17.3692 -11.0502  -6.5330  -2.6610   3.2998   6.8450   7.0046

          k = 0.1366 0.2366 0.0000 (  4889 PWs)   bands (ev):

   -22.4348 -10.8666 -10.3273  -9.7015   0.7106   1.5021   2.3136   2.6548

          k = 0.1366 0.3154 0.0000 (  4859 PWs)   bands (ev):

   -21.7254 -12.2401 -10.5883  -9.5068   1.6906   1.8650   2.4938   3.3165

          k = 0.1366 0.3943 0.0000 (  4831 PWs)   bands (ev):

   -20.8263 -13.8026 -11.2508  -8.4972   0.2347   2.9438   3.7501   4.5963

          k = 0.1366 0.4732 0.0000 (  4821 PWs)   bands (ev):

   -19.7563 -15.3852 -11.6884  -7.3771  -1.3546   4.4321   4.7109   5.2587

          k = 0.1366 0.5520 0.0000 (  4819 PWs)   bands (ev):

   -18.6019 -16.8130 -11.9074  -6.4204  -2.5631   4.5545   6.2410   6.9082

          k = 0.2049 0.3549 0.0000 (  4819 PWs)   bands (ev):

   -20.9257 -13.2467 -11.7299  -8.5984   0.4978   2.8064   3.5966   4.4623

          k = 0.2049 0.4337 0.0000 (  4836 PWs)   bands (ev):

   -19.9475 -14.5095 -12.5370  -7.5277  -0.9472   4.1888   4.9398   5.8887

          k = 0.2049 0.5126 0.0000 (  4835 PWs)   bands (ev):

   -18.8265 -15.9029 -12.9616  -6.4159  -2.3040   5.8064   6.3276   6.3386

          k = 0.2049 0.5915 0.0000 (  4842 PWs)   bands (ev):

   -17.9335 -16.9022 -13.0937  -5.7830  -3.0242   6.2387   6.9674   7.5239

          k = 0.2732 0.4732 0.0000 (  4841 PWs)   bands (ev):

   -18.9112 -15.2929 -13.6275  -6.4280  -2.1696   5.6805   6.1119   7.4049

          k = 0.2732 0.5520 0.0000 (  4834 PWs)   bands (ev):

   -17.8019 -16.3137 -14.1587  -5.3709  -3.2809   6.4676   7.3278   7.9883

          k = 0.3415 0.5915 0.0000 (  4824 PWs)   bands (ev):

   -16.8698 -16.8698 -14.7394  -4.3079  -4.3079   6.2834   8.4079   8.4079

     the Fermi energy is    -4.3079 ev

!    total energy              =     -22.79395041 Ry
     estimated scf accuracy    <          5.7E-11 Ry
     smearing contrib. (-TS)   =      -0.00005015 Ry
     internal energy E=F+TS    =     -22.79390026 Ry

     The total energy is F=E-TS. E is the sum of the following terms:
     one-electron contribution =    -380.89617227 Ry
     hartree contribution      =     191.05189652 Ry
     xc contribution           =      -6.97774480 Ry
     ewald contribution        =     174.02812029 Ry

     convergence has been achieved in  15 iterations

     Forces acting on atoms (cartesian axes, Ry/au):

     atom    1 type  1   force =     0.00000000    0.00000000    0.00000000
     atom    2 type  1   force =    -0.00000000   -0.00000000    0.00000000

     Total force =     0.000000     Total SCF correction =     0.000000


     Computing stress (Cartesian axis) and pressure

          total   stress  (Ry/bohr**3)                   (kbar)     P=      -22.37
  -0.00017982   0.00000000   0.00000000          -26.45        0.00        0.00
   0.00000000  -0.00017982   0.00000000            0.00      -26.45        0.00
   0.00000000   0.00000000  -0.00009662            0.00        0.00      -14.21

     Energy error            =      5.1E-03
     Gradient error          =      1.8E-26
     Cell gradient error     =      1.8E-04


     number of scf cycles    =   3
     number of bfgs steps    =   2

     enthalpy old            =     -22.7888230681 Ry
     enthalpy new            =     -22.7939504107 Ry

     CASE: enthalpy_new < enthalpy_old

     new trust radius        =       0.0819995330 bohr
     new conv_thr            =            1.0E-10 Ry

     new unit-cell volume =    750.60084 a.u.^3 (   111.22757 Ang^3 )
     density =      0.35862 g/cm^3

CELL_PARAMETERS (alat=  4.81000000)
   0.961759795  -0.000000000   0.000000000
  -0.480879897   0.832908414   0.000000000
   0.000000000   0.000000000   8.419958420

ATOMIC_POSITIONS (crystal)
C             0.3333333333        0.6666666667        0.5000000000
C             0.6666666667        0.3333333333        0.5000000000



     Writing output data file ./work/LiC481.save/
     NEW-OLD atomic charge density approx. for the potential

     negative rho (up, down):  3.603E-06 0.000E+00
     extrapolated charge    7.75919, renormalised to    8.00000

     total cpu time spent up to now is        6.3 secs

     Self-consistent Calculation

     iteration #  1     ecut=    50.00 Ry     beta= 0.70
     Davidson diagonalization with overlap
     c_bands:  1 eigenvalues not converged
     c_bands:  1 eigenvalues not converged
     c_bands:  2 eigenvalues not converged
     c_bands:  1 eigenvalues not converged
     c_bands:  1 eigenvalues not converged
     c_bands:  1 eigenvalues not converged
     c_bands:  1 eigenvalues not converged
     c_bands:  2 eigenvalues not converged
     c_bands:  1 eigenvalues not converged
     c_bands:  2 eigenvalues not converged
     c_bands:  1 eigenvalues not converged
     ethr =  1.00E-06,  avg # of iterations = 17.7

     negative rho (up, down):  1.858E-07 0.000E+00

     total cpu time spent up to now is        6.8 secs

     total energy              =     -22.77028094 Ry
     estimated scf accuracy    <       0.01339454 Ry

     iteration #  2     ecut=    50.00 Ry     beta= 0.70
     Davidson diagonalization with overlap
     ethr =  1.67E-04,  avg # of iterations =  9.8

     negative rho (up, down):  2.328E-08 0.000E+00

     total cpu time spent up to now is        7.1 secs

     total energy              =     -22.79648587 Ry
     estimated scf accuracy    <       0.01240367 Ry

     iteration #  3     ecut=    50.00 Ry     beta= 0.70
     Davidson diagonalization with overlap
     ethr =  1.55E-04,  avg # of iterations =  1.0

     total cpu time spent up to now is        7.2 secs

     total energy              =     -22.79546097 Ry
     estimated scf accuracy    <       0.00273232 Ry

     iteration #  4     ecut=    50.00 Ry     beta= 0.70
     Davidson diagonalization with overlap
     ethr =  3.42E-05,  avg # of iterations =  3.4

     total cpu time spent up to now is        7.3 secs

     total energy              =     -22.79581831 Ry
     estimated scf accuracy    <       0.00005071 Ry

     iteration #  5     ecut=    50.00 Ry     beta= 0.70
     Davidson diagonalization with overlap
     ethr =  6.34E-07,  avg # of iterations =  4.7

     total cpu time spent up to now is        7.5 secs

     total energy              =     -22.79583902 Ry
     estimated scf accuracy    <       0.00001811 Ry

     iteration #  6     ecut=    50.00 Ry     beta= 0.70
     Davidson diagonalization with overlap
     ethr =  2.26E-07,  avg # of iterations =  1.0

     total cpu time spent up to now is        7.6 secs

     total energy              =     -22.79581668 Ry
     estimated scf accuracy    <       0.00004039 Ry

     iteration #  7     ecut=    50.00 Ry     beta= 0.70
     Davidson diagonalization with overlap
     ethr =  2.26E-07,  avg # of iterations =  2.1

     total cpu time spent up to now is        7.7 secs

     total energy              =     -22.79582178 Ry
     estimated scf accuracy    <       0.00000237 Ry

     iteration #  8     ecut=    50.00 Ry     beta= 0.70
     Davidson diagonalization with overlap
     ethr =  2.96E-08,  avg # of iterations =  1.0

     total cpu time spent up to now is        7.8 secs

     total energy              =     -22.79582166 Ry
     estimated scf accuracy    <       0.00000116 Ry

     iteration #  9     ecut=    50.00 Ry     beta= 0.70
     Davidson diagonalization with overlap
     ethr =  1.45E-08,  avg # of iterations =  2.0

     total cpu time spent up to now is        7.9 secs

     total energy              =     -22.79582176 Ry
     estimated scf accuracy    <       0.00000005 Ry

     iteration # 10     ecut=    50.00 Ry     beta= 0.70
     Davidson diagonalization with overlap
     ethr =  6.26E-10,  avg # of iterations =  2.5

     total cpu time spent up to now is        8.1 secs

     total energy              =     -22.79582178 Ry
     estimated scf accuracy    <       0.00000002 Ry

     iteration # 11     ecut=    50.00 Ry     beta= 0.70
     Davidson diagonalization with overlap
     ethr =  2.18E-10,  avg # of iterations =  1.0

     total cpu time spent up to now is        8.2 secs

     total energy              =     -22.79582177 Ry
     estimated scf accuracy    <          6.0E-09 Ry

     iteration # 12     ecut=    50.00 Ry     beta= 0.70
     Davidson diagonalization with overlap
     ethr =  7.53E-11,  avg # of iterations =  2.0

     total cpu time spent up to now is        8.3 secs

     total energy              =     -22.79582177 Ry
     estimated scf accuracy    <          2.7E-09 Ry

     iteration # 13     ecut=    50.00 Ry     beta= 0.70
     Davidson diagonalization with overlap
     ethr =  3.37E-11,  avg # of iterations =  1.0

     total cpu time spent up to now is        8.4 secs

     total energy              =     -22.79582177 Ry
     estimated scf accuracy    <          5.8E-10 Ry

     iteration # 14     ecut=    50.00 Ry     beta= 0.70
     Davidson diagonalization with overlap
     ethr =  7.25E-12,  avg # of iterations =  2.0

     total cpu time spent up to now is        8.5 secs

     End of self-consistent calculation

          k = 0.0000 0.0000 0.0000 (  4939 PWs)   bands (ev):

   -23.8934 -11.9546  -7.2670  -7.2670  -0.9822  -0.1994   0.5927   0.9464

          k = 0.0000 0.0800 0.0000 (  4935 PWs)   bands (ev):

   -23.7873 -11.8265  -7.6941  -7.4940  -0.8377  -0.0527   0.7404   1.0935

          k = 0.0000 0.1601 0.0000 (  4885 PWs)   bands (ev):

   -23.4696 -11.4444  -8.8272  -8.0688  -0.4040   0.3870   1.1833   1.5344

          k = 0.0000 0.2401 0.0000 (  4885 PWs)   bands (ev):

   -22.9425 -10.8169 -10.3863  -8.7877   0.3184   1.1173   1.9214   2.2668

          k = 0.0000 0.3202 0.0000 (  4853 PWs)   bands (ev):

   -22.2102 -12.1322  -9.9584  -9.4852   1.3273   2.1049   2.7644   2.9526

          k = 0.0000 0.4002 0.0000 (  4852 PWs)   bands (ev):

   -21.2801 -13.9140 -10.0662  -8.9025   0.8220   2.6142   3.4745   3.7328

          k = 0.0000 0.4802 0.0000 (  4802 PWs)   bands (ev):

   -20.1670 -15.6305 -10.4751  -7.7340  -0.9650   3.5073   4.2278   5.0636

          k = 0.0000 0.5603 0.0000 (  4802 PWs)   bands (ev):

   -18.9418 -17.1683 -10.6857  -6.7566  -2.2743   3.4194   6.0503   6.9206

          k = 0.0693 0.1201 0.0000 (  4899 PWs)   bands (ev):

   -23.5754 -11.5719  -8.4215  -7.9478  -0.5485   0.2405   1.0357   1.3875

          k = 0.0693 0.2001 0.0000 (  4875 PWs)   bands (ev):

   -23.1530 -11.0666  -9.6767  -8.6865   0.0299   0.8259   1.6264   1.9747

          k = 0.0693 0.2801 0.0000 (  4864 PWs)   bands (ev):

   -22.5233 -11.2704 -10.3223  -9.4549   0.8962   1.6981   2.5120   2.8461

          k = 0.0693 0.3602 0.0000 (  4858 PWs)   bands (ev):

   -21.6920 -13.0037 -10.1254  -9.3608   1.6810   2.0472   2.8932   3.6882

          k = 0.0693 0.4402 0.0000 (  4821 PWs)   bands (ev):

   -20.6694 -14.7386 -10.6343  -8.2314  -0.1444   3.4652   4.1102   4.3321

          k = 0.0693 0.5203 0.0000 (  4805 PWs)   bands (ev):

   -19.4831 -16.3763 -10.9510  -7.0911  -1.7466   3.9252   5.2083   6.0497

          k = 0.0693 0.6003 0.0000 (  4806 PWs)   bands (ev):

   -18.4918 -17.5220 -11.0580  -6.4891  -2.5099   3.8773   7.0821   7.2379

          k = 0.1386 0.2401 0.0000 (  4889 PWs)   bands (ev):

   -22.6280 -10.7811 -10.4446  -9.6648   0.7527   1.5555   2.3650   2.7072

          k = 0.1386 0.3202 0.0000 (  4859 PWs)   bands (ev):

   -21.8993 -12.1847 -10.5825  -9.5925   1.7622   2.2441   2.5850   3.3985

          k = 0.1386 0.4002 0.0000 (  4831 PWs)   bands (ev):

   -20.9749 -13.7913 -11.2625  -8.5430   0.5401   3.0537   3.8759   4.7231

          k = 0.1386 0.4802 0.0000 (  4821 PWs)   bands (ev):

   -19.8713 -15.4221 -11.7111  -7.3760  -1.1259   4.6097   5.2829   5.4351

          k = 0.1386 0.5603 0.0000 (  4819 PWs)   bands (ev):

   -18.6623 -16.9123 -11.9357  -6.3749  -2.3947   5.1536   6.4565   7.1503

          k = 0.2080 0.3602 0.0000 (  4819 PWs)   bands (ev):

   -21.0773 -13.1982 -11.7736  -8.6485   0.8228   2.9120   3.7169   4.5791

          k = 0.2080 0.4402 0.0000 (  4836 PWs)   bands (ev):

   -20.0700 -14.4961 -12.6017  -7.5343  -0.6869   4.3372   5.1057   6.2929

          k = 0.2080 0.5203 0.0000 (  4835 PWs)   bands (ev):

   -18.9094 -15.9437 -13.0292  -6.3745  -2.1067   6.0138   6.5597   6.9483

          k = 0.2080 0.6003 0.0000 (  4842 PWs)   bands (ev):

   -17.9505 -17.0145 -13.1618  -5.7113  -2.8625   6.8696   7.2164   7.7975

          k = 0.2773 0.4802 0.0000 (  4841 PWs)   bands (ev):

   -19.0001 -15.2741 -13.7501  -6.3889  -1.9575   5.8772   6.3225   7.6177

          k = 0.2773 0.5603 0.0000 (  4834 PWs)   bands (ev):

   -17.8425 -16.3387 -14.2959  -5.2859  -3.1157   6.6803   7.5982   8.6093

          k = 0.3466 0.6003 0.0000 (  4824 PWs)   bands (ev):

   -16.8727 -16.8727 -14.9405  -4.1803  -4.1803   6.4789   8.8420   8.8420

     the Fermi energy is    -4.1803 ev

!    total energy              =     -22.79582177 Ry
     estimated scf accuracy    <          3.2E-12 Ry
     smearing contrib. (-TS)   =      -0.00005015 Ry
     internal energy E=F+TS    =     -22.79577162 Ry

     The total energy is F=E-TS. E is the sum of the following terms:
     one-electron contribution =    -392.51872834 Ry
     hartree contribution      =     196.89293148 Ry
     xc contribution           =      -7.04154386 Ry
     ewald contribution        =     179.87156910 Ry

     convergence has been achieved in  14 iterations

     Forces acting on atoms (cartesian axes, Ry/au):

     atom    1 type  1   force =     0.00000000    0.00000000    0.00000000
     atom    2 type  1   force =     0.00000000    0.00000000    0.00000000

     Total force =     0.000000     Total SCF correction =     0.000000


     Computing stress (Cartesian axis) and pressure

          total   stress  (Ry/bohr**3)                   (kbar)     P=       -2.77
   0.00001953   0.00000000   0.00000000            2.87        0.00        0.00
   0.00000000   0.00001953  -0.00000000            0.00        2.87       -0.00
   0.00000000   0.00000000  -0.00009549            0.00        0.00      -14.05

     Energy error            =      1.9E-03
     Gradient error          =      0.0E+00
     Cell gradient error     =      2.0E-05


     number of scf cycles    =   4
     number of bfgs steps    =   3

     enthalpy old            =     -22.7939504107 Ry
     enthalpy new            =     -22.7958217726 Ry

     CASE: enthalpy_new < enthalpy_old

     new trust radius        =       0.0079271836 bohr
     new conv_thr            =            1.0E-10 Ry

     new unit-cell volume =    752.77422 a.u.^3 (   111.54963 Ang^3 )
     density =      0.35758 g/cm^3

CELL_PARAMETERS (alat=  4.81000000)
   0.963151192  -0.000000000   0.000000000
  -0.481575596   0.834113400   0.000000000
   0.000000000   0.000000000   8.419958420

ATOMIC_POSITIONS (crystal)
C             0.3333333333        0.6666666667        0.5000000000
C             0.6666666667        0.3333333333        0.5000000000



     Writing output data file ./work/LiC481.save/
     NEW-OLD atomic charge density approx. for the potential
     extrapolated charge    8.02306, renormalised to    8.00000

     total cpu time spent up to now is        8.6 secs

     Self-consistent Calculation

     iteration #  1     ecut=    50.00 Ry     beta= 0.70
     Davidson diagonalization with overlap
     c_bands:  1 eigenvalues not converged
     c_bands:  3 eigenvalues not converged
     ethr =  1.00E-06,  avg # of iterations = 13.4

     total cpu time spent up to now is        8.9 secs

     total energy              =     -22.79551071 Ry
     estimated scf accuracy    <       0.00016974 Ry

     iteration #  2     ecut=    50.00 Ry     beta= 0.70
     Davidson diagonalization with overlap
     c_bands:  1 eigenvalues not converged
     c_bands:  1 eigenvalues not converged
     c_bands:  1 eigenvalues not converged
     c_bands:  2 eigenvalues not converged
     c_bands:  1 eigenvalues not converged
     c_bands:  1 eigenvalues not converged
     ethr =  2.12E-06,  avg # of iterations = 12.9

     total cpu time spent up to now is        9.3 secs

     total energy              =     -22.79585193 Ry
     estimated scf accuracy    <       0.00016060 Ry

     iteration #  3     ecut=    50.00 Ry     beta= 0.70
     Davidson diagonalization with overlap
     ethr =  2.01E-06,  avg # of iterations =  2.0

     total cpu time spent up to now is        9.4 secs

     total energy              =     -22.79584365 Ry
     estimated scf accuracy    <       0.00003678 Ry

     iteration #  4     ecut=    50.00 Ry     beta= 0.70
     Davidson diagonalization with overlap
     ethr =  4.60E-07,  avg # of iterations =  1.1

     total cpu time spent up to now is        9.5 secs

     total energy              =     -22.79584560 Ry
     estimated scf accuracy    <       0.00000804 Ry

     iteration #  5     ecut=    50.00 Ry     beta= 0.70
     Davidson diagonalization with overlap
     ethr =  1.01E-07,  avg # of iterations =  1.0

     total cpu time spent up to now is        9.6 secs

     total energy              =     -22.79584096 Ry
     estimated scf accuracy    <       0.00000808 Ry

     iteration #  6     ecut=    50.00 Ry     beta= 0.70
     Davidson diagonalization with overlap
     ethr =  1.01E-07,  avg # of iterations =  2.0

     total cpu time spent up to now is        9.7 secs

     total energy              =     -22.79584183 Ry
     estimated scf accuracy    <       0.00000019 Ry

     iteration #  7     ecut=    50.00 Ry     beta= 0.70
     Davidson diagonalization with overlap
     ethr =  2.38E-09,  avg # of iterations =  2.0

     total cpu time spent up to now is        9.8 secs

     total energy              =     -22.79584190 Ry
     estimated scf accuracy    <       0.00000002 Ry

     iteration #  8     ecut=    50.00 Ry     beta= 0.70
     Davidson diagonalization with overlap
     ethr =  2.34E-10,  avg # of iterations =  2.2

     total cpu time spent up to now is       10.0 secs

     total energy              =     -22.79584190 Ry
     estimated scf accuracy    <          9.5E-09 Ry

     iteration #  9     ecut=    50.00 Ry     beta= 0.70
     Davidson diagonalization with overlap
     ethr =  1.19E-10,  avg # of iterations =  2.0

     total cpu time spent up to now is       10.1 secs

     total energy              =     -22.79584190 Ry
     estimated scf accuracy    <          3.6E-10 Ry

     iteration # 10     ecut=    50.00 Ry     beta= 0.70
     Davidson diagonalization with overlap
     ethr =  4.48E-12,  avg # of iterations =  2.5

     total cpu time spent up to now is       10.2 secs

     End of self-consistent calculation

          k = 0.0000 0.0000 0.0000 (  4939 PWs)   bands (ev):

   -23.8715 -11.9377  -7.2810  -7.2810  -0.9814  -0.1994   0.5928   0.9465

          k = 0.0000 0.0799 0.0000 (  4935 PWs)   bands (ev):

   -23.7656 -11.8102  -7.7075  -7.5070  -0.8373  -0.0532   0.7400   1.0931

          k = 0.0000 0.1599 0.0000 (  4885 PWs)   bands (ev):

   -23.4487 -11.4293  -8.8385  -8.0793  -0.4049   0.3852   1.1817   1.5327

          k = 0.0000 0.2398 0.0000 (  4885 PWs)   bands (ev):

   -22.9230 -10.8041 -10.3945  -8.7953   0.3154   1.1133   1.9176   2.2630

          k = 0.0000 0.3197 0.0000 (  4853 PWs)   bands (ev):

   -22.1925 -12.1364  -9.9487  -9.4900   1.3214   2.0963   2.7282   2.9458

          k = 0.0000 0.3996 0.0000 (  4852 PWs)   bands (ev):

   -21.2649 -13.9140 -10.0688  -8.8967   0.7920   2.6044   3.4633   3.6797

          k = 0.0000 0.4796 0.0000 (  4802 PWs)   bands (ev):

   -20.1551 -15.6259 -10.4762  -7.7329  -0.9869   3.4535   4.2118   5.0476

          k = 0.0000 0.5595 0.0000 (  4802 PWs)   bands (ev):

   -18.9354 -17.1575 -10.6860  -6.7598  -2.2901   3.3633   6.0304   6.8987

          k = 0.0692 0.1199 0.0000 (  4899 PWs)   bands (ev):

   -23.5542 -11.5564  -8.4338  -7.9588  -0.5489   0.2392   1.0345   1.3862

          k = 0.0692 0.1998 0.0000 (  4875 PWs)   bands (ev):

   -23.1329 -11.0529  -9.6868  -8.6945   0.0278   0.8228   1.6235   1.9717

          k = 0.0692 0.2797 0.0000 (  4864 PWs)   bands (ev):

   -22.5049 -11.2770 -10.3112  -9.4600   0.8916   1.6922   2.5065   2.8403

          k = 0.0692 0.3597 0.0000 (  4858 PWs)   bands (ev):

   -21.6757 -13.0062 -10.1282  -9.3533   1.6471   2.0393   2.8833   3.6791

          k = 0.0692 0.4396 0.0000 (  4821 PWs)   bands (ev):

   -20.6559 -14.7366 -10.6353  -8.2283  -0.1704   3.4519   4.0558   4.3183

          k = 0.0692 0.5195 0.0000 (  4805 PWs)   bands (ev):

   -19.4736 -16.3693 -10.9510  -7.0927  -1.7653   3.8689   5.1906   6.0305

          k = 0.0692 0.5994 0.0000 (  4806 PWs)   bands (ev):

   -18.4898 -17.5070 -11.0576  -6.4936  -2.5248   3.8203   7.0587   7.2149

          k = 0.1384 0.2398 0.0000 (  4889 PWs)   bands (ev):

   -22.6093 -10.7898 -10.4331  -9.6687   0.7485   1.5502   2.3600   2.7020

          k = 0.1384 0.3197 0.0000 (  4859 PWs)   bands (ev):

   -21.8824 -12.1904 -10.5834  -9.5842   1.7551   2.2071   2.5756   3.3904

          k = 0.1384 0.3996 0.0000 (  4831 PWs)   bands (ev):

   -20.9605 -13.7926 -11.2618  -8.5386   0.5099   3.0428   3.8636   4.7109

          k = 0.1384 0.4796 0.0000 (  4821 PWs)   bands (ev):

   -19.8602 -15.4187 -11.7092  -7.3762  -1.1485   4.5934   5.2254   5.4177

          k = 0.1384 0.5595 0.0000 (  4819 PWs)   bands (ev):

   -18.6565 -16.9029 -11.9333  -6.3795  -2.4114   5.0945   6.4352   7.1265

          k = 0.2077 0.3597 0.0000 (  4819 PWs)   bands (ev):

   -21.0626 -13.2032 -11.7697  -8.6437   0.7906   2.9015   3.7051   4.5676

          k = 0.2077 0.4396 0.0000 (  4836 PWs)   bands (ev):

   -20.0582 -14.4977 -12.5957  -7.5338  -0.7127   4.3225   5.0893   6.0350

          k = 0.2077 0.5195 0.0000 (  4835 PWs)   bands (ev):

   -18.9014 -15.9398 -13.0230  -6.3787  -2.1262   5.9937   6.5379   6.8871

          k = 0.2077 0.5994 0.0000 (  4842 PWs)   bands (ev):

   -17.9492 -17.0034 -13.1556  -5.7185  -2.8785   6.8077   7.1917   7.7706

          k = 0.2769 0.4796 0.0000 (  4841 PWs)   bands (ev):

   -18.9915 -15.2763 -13.7384  -6.3929  -1.9785   5.8578   6.3017   7.6426

          k = 0.2769 0.5595 0.0000 (  4834 PWs)   bands (ev):

   -17.8387 -16.3364 -14.2829  -5.2944  -3.1321   6.6592   7.5719   8.5486

          k = 0.3461 0.5994 0.0000 (  4824 PWs)   bands (ev):

   -16.8728 -16.8728 -14.9209  -4.1930  -4.1930   6.4595   8.8006   8.8006

     the Fermi energy is    -4.1930 ev

!    total energy              =     -22.79584190 Ry
     estimated scf accuracy    <          8.9E-11 Ry
     smearing contrib. (-TS)   =      -0.00005015 Ry
     internal energy E=F+TS    =     -22.79579175 Ry

     The total energy is F=E-TS. E is the sum of the following terms:
     one-electron contribution =    -391.37184981 Ry
     hartree contribution      =     196.31651892 Ry
     xc contribution           =      -7.03527680 Ry
     ewald contribution        =     179.29481593 Ry

     convergence has been achieved in  10 iterations

     Forces acting on atoms (cartesian axes, Ry/au):

     atom    1 type  1   force =     0.00000000    0.00000000    0.00000000
     atom    2 type  1   force =     0.00000000    0.00000000    0.00000000

     Total force =     0.000000     Total SCF correction =     0.000000


     Computing stress (Cartesian axis) and pressure

          total   stress  (Ry/bohr**3)                   (kbar)     P=       -4.78
  -0.00000097  -0.00000000   0.00000000           -0.14       -0.00        0.00
  -0.00000000  -0.00000097   0.00000000           -0.00       -0.14        0.00
   0.00000000   0.00000000  -0.00009560            0.00        0.00      -14.06

     Energy error            =      2.0E-05
     Gradient error          =      0.0E+00
     Cell gradient error     =      9.7E-07


     number of scf cycles    =   5
     number of bfgs steps    =   4

     enthalpy old            =     -22.7958217726 Ry
     enthalpy new            =     -22.7958419045 Ry

     CASE: enthalpy_new < enthalpy_old

     new trust radius        =       0.0003741854 bohr
     new conv_thr            =            1.0E-10 Ry

     new unit-cell volume =    752.67156 a.u.^3 (   111.53442 Ang^3 )
     density =      0.35763 g/cm^3

CELL_PARAMETERS (alat=  4.81000000)
   0.963085514  -0.000000000   0.000000000
  -0.481542757   0.834056521   0.000000000
   0.000000000   0.000000000   8.419958420

ATOMIC_POSITIONS (crystal)
C             0.3333333333        0.6666666667        0.5000000000
C             0.6666666667        0.3333333333        0.5000000000



     Writing output data file ./work/LiC481.save/
     NEW-OLD atomic charge density approx. for the potential
     extrapolated charge    7.99891, renormalised to    8.00000

     total cpu time spent up to now is       10.3 secs

     Self-consistent Calculation

     iteration #  1     ecut=    50.00 Ry     beta= 0.70
     Davidson diagonalization with overlap
     ethr =  1.00E-06,  avg # of iterations =  1.9

     Threshold (ethr) on eigenvalues was too large:
     Diagonalizing with lowered threshold

     Davidson diagonalization with overlap
     ethr =  4.08E-09,  avg # of iterations =  1.5

     total cpu time spent up to now is       10.5 secs

     total energy              =     -22.79584125 Ry
     estimated scf accuracy    <       0.00000036 Ry

     iteration #  2     ecut=    50.00 Ry     beta= 0.70
     Davidson diagonalization with overlap
     ethr =  4.49E-09,  avg # of iterations =  3.0

     total cpu time spent up to now is       10.7 secs

     total energy              =     -22.79584197 Ry
     estimated scf accuracy    <       0.00000033 Ry

     iteration #  3     ecut=    50.00 Ry     beta= 0.70
     Davidson diagonalization with overlap
     ethr =  4.17E-09,  avg # of iterations =  1.0

     total cpu time spent up to now is       10.8 secs

     total energy              =     -22.79584195 Ry
     estimated scf accuracy    <       0.00000008 Ry

     iteration #  4     ecut=    50.00 Ry     beta= 0.70
     Davidson diagonalization with overlap
     ethr =  9.66E-10,  avg # of iterations =  1.9

     total cpu time spent up to now is       10.9 secs

     total energy              =     -22.79584196 Ry
     estimated scf accuracy    <       0.00000001 Ry

     iteration #  5     ecut=    50.00 Ry     beta= 0.70
     Davidson diagonalization with overlap
     ethr =  1.56E-10,  avg # of iterations =  1.0

     total cpu time spent up to now is       11.0 secs

     total energy              =     -22.79584196 Ry
     estimated scf accuracy    <       0.00000001 Ry

     iteration #  6     ecut=    50.00 Ry     beta= 0.70
     Davidson diagonalization with overlap
     ethr =  1.56E-10,  avg # of iterations =  1.0

     total cpu time spent up to now is       11.1 secs

     total energy              =     -22.79584195 Ry
     estimated scf accuracy    <          6.6E-09 Ry

     iteration #  7     ecut=    50.00 Ry     beta= 0.70
     Davidson diagonalization with overlap
     ethr =  8.21E-11,  avg # of iterations =  2.0

     total cpu time spent up to now is       11.2 secs

     End of self-consistent calculation

          k = 0.0000 0.0000 0.0000 (  4939 PWs)   bands (ev):

   -23.8724 -11.9385  -7.2803  -7.2803  -0.9815  -0.1995   0.5928   0.9465

          k = 0.0000 0.0799 0.0000 (  4935 PWs)   bands (ev):

   -23.7666 -11.8109  -7.7068  -7.5064  -0.8374  -0.0532   0.7400   1.0931

          k = 0.0000 0.1599 0.0000 (  4885 PWs)   bands (ev):

   -23.4496 -11.4300  -8.8380  -8.0787  -0.4048   0.3853   1.1817   1.5328

          k = 0.0000 0.2398 0.0000 (  4885 PWs)   bands (ev):

   -22.9239 -10.8047 -10.3941  -8.7949   0.3156   1.1134   1.9178   2.2631

          k = 0.0000 0.3197 0.0000 (  4853 PWs)   bands (ev):

   -22.1933 -12.1362  -9.9491  -9.4897   1.3217   2.0967   2.7300   2.9461

          k = 0.0000 0.3997 0.0000 (  4852 PWs)   bands (ev):

   -21.2656 -13.9139 -10.0687  -8.8970   0.7935   2.6048   3.4638   3.6822

          k = 0.0000 0.4796 0.0000 (  4802 PWs)   bands (ev):

   -20.1556 -15.6260 -10.4761  -7.7329  -0.9858   3.4561   4.2125   5.0483

          k = 0.0000 0.5595 0.0000 (  4802 PWs)   bands (ev):

   -18.9357 -17.1580 -10.6859  -6.7596  -2.2893   3.3660   6.0313   6.8997

          k = 0.0692 0.1199 0.0000 (  4899 PWs)   bands (ev):

   -23.5552 -11.5571  -8.4332  -7.9583  -0.5489   0.2392   1.0345   1.3863

          k = 0.0692 0.1998 0.0000 (  4875 PWs)   bands (ev):

   -23.1338 -11.0535  -9.6862  -8.6941   0.0279   0.8229   1.6236   1.9718

          k = 0.0692 0.2798 0.0000 (  4864 PWs)   bands (ev):

   -22.5057 -11.2767 -10.3117  -9.4597   0.8918   1.6925   2.5068   2.8405

          k = 0.0692 0.3597 0.0000 (  4858 PWs)   bands (ev):

   -21.6764 -13.0060 -10.1280  -9.3536   1.6487   2.0396   2.8837   3.6794

          k = 0.0692 0.4396 0.0000 (  4821 PWs)   bands (ev):

   -20.6565 -14.7367 -10.6352  -8.2284  -0.1691   3.4526   4.0584   4.3189

          k = 0.0692 0.5195 0.0000 (  4805 PWs)   bands (ev):

   -19.4740 -16.3696 -10.9509  -7.0926  -1.7643   3.8716   5.1914   6.0314

          k = 0.0692 0.5995 0.0000 (  4806 PWs)   bands (ev):

   -18.4899 -17.5077 -11.0575  -6.4933  -2.5240   3.8230   7.0598   7.2160

          k = 0.1384 0.2398 0.0000 (  4889 PWs)   bands (ev):

   -22.6101 -10.7894 -10.4336  -9.6685   0.7487   1.5504   2.3602   2.7022

          k = 0.1384 0.3197 0.0000 (  4859 PWs)   bands (ev):

   -21.8832 -12.1901 -10.5833  -9.5845   1.7554   2.2089   2.5760   3.3907

          k = 0.1384 0.3997 0.0000 (  4831 PWs)   bands (ev):

   -20.9611 -13.7925 -11.2618  -8.5387   0.5114   3.0433   3.8641   4.7114

          k = 0.1384 0.4796 0.0000 (  4821 PWs)   bands (ev):

   -19.8607 -15.4188 -11.7093  -7.3761  -1.1474   4.5942   5.2281   5.4185

          k = 0.1384 0.5595 0.0000 (  4819 PWs)   bands (ev):

   -18.6567 -16.9033 -11.9334  -6.3793  -2.4105   5.0974   6.4362   7.1275

          k = 0.2077 0.3597 0.0000 (  4819 PWs)   bands (ev):

   -21.0633 -13.2030 -11.7698  -8.6438   0.7922   2.9020   3.7056   4.5681

          k = 0.2077 0.4396 0.0000 (  4836 PWs)   bands (ev):

   -20.0587 -14.4976 -12.5960  -7.5338  -0.7114   4.3232   5.0901   6.0357

          k = 0.2077 0.5195 0.0000 (  4835 PWs)   bands (ev):

   -18.9017 -15.9400 -13.0233  -6.3785  -2.1252   5.9946   6.5389   6.8900

          k = 0.2077 0.5995 0.0000 (  4842 PWs)   bands (ev):

   -17.9492 -17.0039 -13.1559  -5.7181  -2.8777   6.8106   7.1929   7.7718

          k = 0.2769 0.4796 0.0000 (  4841 PWs)   bands (ev):

   -18.9919 -15.2761 -13.7389  -6.3926  -1.9775   5.8587   6.3027   7.6435

          k = 0.2769 0.5595 0.0000 (  4834 PWs)   bands (ev):

   -17.8389 -16.3365 -14.2835  -5.2940  -3.1313   6.6602   7.5731   8.5515

          k = 0.3461 0.5995 0.0000 (  4824 PWs)   bands (ev):

   -16.8727 -16.8727 -14.9217  -4.1923  -4.1923   6.4604   8.8026   8.8026

     the Fermi energy is    -4.1923 ev

!    total energy              =     -22.79584195 Ry
     estimated scf accuracy    <          5.4E-11 Ry
     smearing contrib. (-TS)   =      -0.00005015 Ry
     internal energy E=F+TS    =     -22.79579180 Ry

     The total energy is F=E-TS. E is the sum of the following terms:
     one-electron contribution =    -391.42585731 Ry
     hartree contribution      =     196.34365357 Ry
     xc contribution           =      -7.03557031 Ry
     ewald contribution        =     179.32198224 Ry

     convergence has been achieved in   7 iterations

     Forces acting on atoms (cartesian axes, Ry/au):

     atom    1 type  1   force =     0.00000000    0.00000000    0.00000000
     atom    2 type  1   force =     0.00000000    0.00000000    0.00000000

     Total force =     0.000000     Total SCF correction =     0.000000


     Computing stress (Cartesian axis) and pressure

          total   stress  (Ry/bohr**3)                   (kbar)     P=       -4.69
  -0.00000000  -0.00000000   0.00000000           -0.00       -0.00        0.00
  -0.00000000  -0.00000000   0.00000000           -0.00       -0.00        0.00
   0.00000000   0.00000000  -0.00009560            0.00        0.00      -14.06

     Energy error            =      4.9E-08
     Gradient error          =      0.0E+00
     Cell gradient error     =      4.6E-09


     bfgs converged in   6 scf cycles and   5 bfgs steps
     (criteria: energy <  1.0E-04 Ry, force <  1.0E-08Ry/Bohr, cell <  1.0E-03kbar)

     End of BFGS Geometry Optimization

     Final enthalpy =     -22.7958419538 Ry

     File ./work/LiC481.bfgs deleted, as requested
Begin final coordinates
     new unit-cell volume =    752.67156 a.u.^3 (   111.53442 Ang^3 )
     density =      0.35763 g/cm^3

CELL_PARAMETERS (alat=  4.81000000)
   0.963085514  -0.000000000   0.000000000
  -0.481542757   0.834056521   0.000000000
   0.000000000   0.000000000   8.419958420

ATOMIC_POSITIONS (crystal)
C             0.3333333333        0.6666666667        0.5000000000
C             0.6666666667        0.3333333333        0.5000000000
End final coordinates



     Writing output data file ./work/LiC481.save/

     Final scf calculation at the relaxed structure.
     The G-vectors are recalculated for the final unit cell
     Results may differ from those at the preceding step.
 
     Parallelization info
     --------------------
     sticks:   dense  smooth     PW     G-vecs:    dense   smooth      PW
     Min           9       9      2                 1115     1115     170
     Max          10      10      3                 1146     1146     215
     Sum         301     301     91                36039    36039    6397
 


     bravais-lattice index     =            4
     lattice parameter (alat)  =       4.8100  a.u.
     unit-cell volume          =     752.6716 (a.u.)^3
     number of atoms/cell      =            2
     number of atomic types    =            1
     number of electrons       =         8.00
     number of Kohn-Sham states=            8
     kinetic-energy cutoff     =      50.0000  Ry
     charge density cutoff     =     200.0000  Ry
     scf convergence threshold =      1.0E-10
     mixing beta               =       0.7000
     number of iterations used =            8  plain     mixing
     press convergence thresh. =      1.0E-03
     Exchange-correlation= PBE
                           (   1   4   3   4   0   0   0)

     celldm(1)=   4.810000  celldm(2)=   0.000000  celldm(3)=   8.419958
     celldm(4)=   0.000000  celldm(5)=   0.000000  celldm(6)=   0.000000

     crystal axes: (cart. coord. in units of alat)
               a(1) = (   0.963086  -0.000000   0.000000 )  
               a(2) = (  -0.481543   0.834057   0.000000 )  
               a(3) = (   0.000000   0.000000   8.419958 )  

     reciprocal axes: (cart. coord. in units 2 pi/alat)
               b(1) = (  1.038329  0.599480  0.000000 )  
               b(2) = (  0.000000  1.198960  0.000000 )  
               b(3) = (  0.000000  0.000000  0.118765 )  


     PseudoPot. # 1 for C  read from file:
     /home/yhkim/qe-6.7/pseudo/ONCV1/1.2/C_ONCV_PBE-1.2.upf
     MD5 check sum: 1a5f83a7b1f58d24996abe00ed223ac6
     Pseudo is Norm-conserving, Zval =  4.0
     Generated using ONCVPSP code by D. R. Hamann
     Using radial grid of  602 points,  4 beta functions with: 
                l(1) =   0
                l(2) =   0
                l(3) =   1
                l(4) =   1

     atomic species   valence    mass     pseudopotential
        C              4.00    12.01070     C ( 1.00)

     24 Sym. Ops., with inversion, found



   Cartesian axes

     site n.     atom                  positions (alat units)
         1           C   tau(   1) = (  -0.0000000   0.5560377   4.2099792  )
         2           C   tau(   2) = (   0.4815428   0.2780188   4.2099792  )

     number of k points=    27  Methfessel-Paxton smearing, width (Ry)=  0.0100
                       cart. coord. in units 2pi/alat
        k(    1) = (   0.0000000   0.0000000   0.0000000), wk =   0.0088889
        k(    2) = (   0.0000000   0.0799306   0.0000000), wk =   0.0533333
        k(    3) = (   0.0000000   0.1598613   0.0000000), wk =   0.0533333
        k(    4) = (   0.0000000   0.2397919   0.0000000), wk =   0.0533333
        k(    5) = (   0.0000000   0.3197225   0.0000000), wk =   0.0533333
        k(    6) = (   0.0000000   0.3996532   0.0000000), wk =   0.0533333
        k(    7) = (   0.0000000   0.4795838   0.0000000), wk =   0.0533333
        k(    8) = (   0.0000000   0.5595144   0.0000000), wk =   0.0533333
        k(    9) = (   0.0692220   0.1198960   0.0000000), wk =   0.0533333
        k(   10) = (   0.0692220   0.1998266   0.0000000), wk =   0.1066667
        k(   11) = (   0.0692220   0.2797572   0.0000000), wk =   0.1066667
        k(   12) = (   0.0692220   0.3596879   0.0000000), wk =   0.1066667
        k(   13) = (   0.0692220   0.4396185   0.0000000), wk =   0.1066667
        k(   14) = (   0.0692220   0.5195491   0.0000000), wk =   0.1066667
        k(   15) = (   0.0692220   0.5994798   0.0000000), wk =   0.0533333
        k(   16) = (   0.1384439   0.2397919   0.0000000), wk =   0.0533333
        k(   17) = (   0.1384439   0.3197225   0.0000000), wk =   0.1066667
        k(   18) = (   0.1384439   0.3996532   0.0000000), wk =   0.1066667
        k(   19) = (   0.1384439   0.4795838   0.0000000), wk =   0.1066667
        k(   20) = (   0.1384439   0.5595144   0.0000000), wk =   0.1066667
        k(   21) = (   0.2076659   0.3596879   0.0000000), wk =   0.0533333
        k(   22) = (   0.2076659   0.4396185   0.0000000), wk =   0.1066667
        k(   23) = (   0.2076659   0.5195491   0.0000000), wk =   0.1066667
        k(   24) = (   0.2076659   0.5994798   0.0000000), wk =   0.0533333
        k(   25) = (   0.2768878   0.4795838   0.0000000), wk =   0.0533333
        k(   26) = (   0.2768878   0.5595144   0.0000000), wk =   0.1066667
        k(   27) = (   0.3461098   0.5994798   0.0000000), wk =   0.0177778

     Dense  grid:    36039 G-vectors     FFT dimensions: (  24,  24, 192)

     Estimated max dynamical RAM per process >       1.96 MB

     Estimated total dynamical RAM >      62.57 MB
 ----2D----2D----2D----2D----2D----2D----2D----2D----2D----2D----2D----2D
  The code is running with the 2D cutoff
  Please refer to:
  Sohier, T., Calandra, M., & Mauri, F. (2017), 
  Density functional perturbation theory for gated two-dimensional heterostructu
 res:
  Theoretical developments and application to flexural phonons in graphene.
  Physical Review B, 96(7), 75448. https://doi.org/10.1103/PhysRevB.96.075448
 ----2D----2D----2D----2D----2D----2D----2D----2D----2D----2D----2D----2D

     Initial potential from superposition of free atoms

     starting charge    7.98607, renormalised to    8.00000

     negative rho (up, down):  1.153E-04 0.000E+00
     Starting wfcs are random

     total cpu time spent up to now is       11.3 secs

     Self-consistent Calculation

     iteration #  1     ecut=    50.00 Ry     beta= 0.70
     Davidson diagonalization with overlap
     c_bands:  1 eigenvalues not converged
     c_bands:  3 eigenvalues not converged
     c_bands:  4 eigenvalues not converged
     c_bands:  4 eigenvalues not converged
     c_bands:  4 eigenvalues not converged
     c_bands:  4 eigenvalues not converged
     c_bands:  3 eigenvalues not converged
     c_bands:  2 eigenvalues not converged
     c_bands:  3 eigenvalues not converged
     c_bands:  5 eigenvalues not converged
     c_bands:  4 eigenvalues not converged
     c_bands:  4 eigenvalues not converged
     c_bands:  2 eigenvalues not converged
     c_bands:  2 eigenvalues not converged
     c_bands:  2 eigenvalues not converged
     c_bands:  4 eigenvalues not converged
     c_bands:  4 eigenvalues not converged
     c_bands:  3 eigenvalues not converged
     c_bands:  3 eigenvalues not converged
     c_bands:  2 eigenvalues not converged
     c_bands:  4 eigenvalues not converged
     c_bands:  3 eigenvalues not converged
     c_bands:  3 eigenvalues not converged
     c_bands:  3 eigenvalues not converged
     c_bands:  3 eigenvalues not converged
     c_bands:  3 eigenvalues not converged
     c_bands:  3 eigenvalues not converged
     ethr =  1.00E-06,  avg # of iterations = 22.2

     negative rho (up, down):  2.295E-05 0.000E+00

     total cpu time spent up to now is       12.1 secs

     total energy              =     -22.75998339 Ry
     estimated scf accuracy    <       0.20013856 Ry

     iteration #  2     ecut=    50.00 Ry     beta= 0.70
     Davidson diagonalization with overlap
     ethr =  2.50E-03,  avg # of iterations =  2.3

     negative rho (up, down):  2.961E-06 0.000E+00

     total cpu time spent up to now is       12.2 secs

     total energy              =     -22.79015230 Ry
     estimated scf accuracy    <       0.00234589 Ry

     iteration #  3     ecut=    50.00 Ry     beta= 0.70
     Davidson diagonalization with overlap
     ethr =  2.93E-05,  avg # of iterations =  8.9

     total cpu time spent up to now is       12.4 secs

     total energy              =     -22.79055088 Ry
     estimated scf accuracy    <       0.00017334 Ry

     iteration #  4     ecut=    50.00 Ry     beta= 0.70
     Davidson diagonalization with overlap
     c_bands:  1 eigenvalues not converged
     ethr =  2.17E-06,  avg # of iterations =  5.9

     total cpu time spent up to now is       12.5 secs

     total energy              =     -22.79056438 Ry
     estimated scf accuracy    <       0.00000123 Ry

     iteration #  5     ecut=    50.00 Ry     beta= 0.70
     Davidson diagonalization with overlap
     ethr =  1.54E-08,  avg # of iterations =  3.8

     total cpu time spent up to now is       12.7 secs

     total energy              =     -22.79056577 Ry
     estimated scf accuracy    <       0.00000004 Ry

     iteration #  6     ecut=    50.00 Ry     beta= 0.70
     Davidson diagonalization with overlap
     ethr =  4.52E-10,  avg # of iterations =  2.6

     total cpu time spent up to now is       12.8 secs

     total energy              =     -22.79056578 Ry
     estimated scf accuracy    <          8.7E-10 Ry

     iteration #  7     ecut=    50.00 Ry     beta= 0.70
     Davidson diagonalization with overlap
     ethr =  1.09E-11,  avg # of iterations =  3.0

     total cpu time spent up to now is       12.9 secs

     End of self-consistent calculation

          k = 0.0000 0.0000 0.0000 (  4459 PWs)   bands (ev):

   -23.8804 -11.9412  -7.2689  -7.2689  -0.9834  -0.2036   0.5838   0.9389

          k = 0.0000 0.0799 0.0000 (  4461 PWs)   bands (ev):

   -23.7743 -11.8129  -7.6956  -7.4963  -0.8392  -0.0573   0.7310   1.0856

          k = 0.0000 0.1599 0.0000 (  4489 PWs)   bands (ev):

   -23.4573 -11.4328  -8.8288  -8.0682  -0.4066   0.3811   1.1727   1.5252

          k = 0.0000 0.2398 0.0000 (  4467 PWs)   bands (ev):

   -22.9312 -10.8072 -10.3837  -8.7823   0.3139   1.1094   1.9088   2.2555

          k = 0.0000 0.3197 0.0000 (  4509 PWs)   bands (ev):

   -22.2007 -12.1331  -9.9514  -9.4815   1.3201   2.0935   2.7314   2.9373

          k = 0.0000 0.3997 0.0000 (  4519 PWs)   bands (ev):

   -21.2727 -13.9152 -10.0602  -8.8976   0.7960   2.6035   3.4602   3.6790

          k = 0.0000 0.4796 0.0000 (  4515 PWs)   bands (ev):

   -20.1623 -15.6307 -10.4702  -7.7337  -0.9854   3.4512   4.2108   5.0450

          k = 0.0000 0.5595 0.0000 (  4521 PWs)   bands (ev):

   -18.9423 -17.1630 -10.6808  -6.7599  -2.2897   3.3599   6.0303   6.8968

          k = 0.0692 0.1199 0.0000 (  4491 PWs)   bands (ev):

   -23.5629 -11.5589  -8.4228  -7.9485  -0.5508   0.2351   1.0255   1.3788

          k = 0.0692 0.1998 0.0000 (  4479 PWs)   bands (ev):

   -23.1413 -11.0556  -9.6760  -8.6849   0.0261   0.8189   1.6146   1.9642

          k = 0.0692 0.2798 0.0000 (  4482 PWs)   bands (ev):

   -22.5131 -11.2700 -10.3135  -9.4504   0.8902   1.6886   2.4978   2.8329

          k = 0.0692 0.3597 0.0000 (  4498 PWs)   bands (ev):

   -21.6836 -13.0047 -10.1199  -9.3544   1.6527   2.0381   2.8801   3.6708

          k = 0.0692 0.4396 0.0000 (  4508 PWs)   bands (ev):

   -20.6634 -14.7397 -10.6287  -8.2300  -0.1671   3.4515   4.0550   4.3154

          k = 0.0692 0.5195 0.0000 (  4514 PWs)   bands (ev):

   -19.4807 -16.3742 -10.9452  -7.0944  -1.7638   3.8675   5.1901   6.0283

          k = 0.0692 0.5995 0.0000 (  4514 PWs)   bands (ev):

   -18.4968 -17.5119 -11.0527  -6.4939  -2.5238   3.8186   7.0593   7.2153

          k = 0.1384 0.2398 0.0000 (  4481 PWs)   bands (ev):

   -22.6175 -10.7821 -10.4349  -9.6605   0.7471   1.5466   2.3513   2.6949

          k = 0.1384 0.3197 0.0000 (  4477 PWs)   bands (ev):

   -21.8905 -12.1865 -10.5753  -9.5862   1.7539   2.2140   2.5725   3.3818

          k = 0.1384 0.3997 0.0000 (  4499 PWs)   bands (ev):

   -20.9682 -13.7929 -11.2563  -8.5404   0.5119   3.0419   3.8606   4.7029

          k = 0.1384 0.4796 0.0000 (  4505 PWs)   bands (ev):

   -19.8676 -15.4217 -11.7044  -7.3776  -1.1474   4.5933   5.2279   5.4155

          k = 0.1384 0.5595 0.0000 (  4503 PWs)   bands (ev):

   -18.6632 -16.9078 -11.9290  -6.3811  -2.4099   5.0971   6.4353   7.1260

          k = 0.2077 0.3597 0.0000 (  4485 PWs)   bands (ev):

   -21.0705 -13.2031 -11.7639  -8.6460   0.7933   2.9006   3.7021   4.5592

          k = 0.2077 0.4396 0.0000 (  4485 PWs)   bands (ev):

   -20.0655 -14.4990 -12.5909  -7.5345  -0.7095   4.3220   5.0873   6.0270

          k = 0.2077 0.5195 0.0000 (  4499 PWs)   bands (ev):

   -18.9082 -15.9435 -13.0191  -6.3799  -2.1247   5.9941   6.5373   6.8964

          k = 0.2077 0.5995 0.0000 (  4494 PWs)   bands (ev):

   -17.9554 -17.0075 -13.1524  -5.7186  -2.8769   6.8167   7.1920   7.7738

          k = 0.2769 0.4796 0.0000 (  4469 PWs)   bands (ev):

   -18.9980 -15.2781 -13.7351  -6.3920  -1.9759   5.8581   6.3013   7.5938

          k = 0.2769 0.5595 0.0000 (  4484 PWs)   bands (ev):

   -17.8444 -16.3401 -14.2813  -5.2940  -3.1312   6.6586   7.5742   8.5635

          k = 0.3461 0.5995 0.0000 (  4473 PWs)   bands (ev):

   -16.8771 -16.8771 -14.9202  -4.1919  -4.1919   6.4583   8.8108   8.8108

     the Fermi energy is    -4.1919 ev

!    total energy              =     -22.79056578 Ry
     estimated scf accuracy    <          1.0E-11 Ry
     smearing contrib. (-TS)   =      -0.00005015 Ry
     internal energy E=F+TS    =     -22.79051563 Ry

     The total energy is F=E-TS. E is the sum of the following terms:
     one-electron contribution =    -391.41528973 Ry
     hartree contribution      =     196.33805339 Ry
     xc contribution           =      -7.03526152 Ry
     ewald contribution        =     179.32198222 Ry

     convergence has been achieved in   7 iterations

     Forces acting on atoms (cartesian axes, Ry/au):

     atom    1 type  1   force =     0.00000000    0.00000000    0.00000000
     atom    2 type  1   force =     0.00000000    0.00000000    0.00000000

     Total force =     0.000000     Total SCF correction =     0.000000


     Computing stress (Cartesian axis) and pressure

          total   stress  (Ry/bohr**3)                   (kbar)     P=       -8.23
  -0.00002923  -0.00000000  -0.00000000           -4.30       -0.00       -0.00
  -0.00000000  -0.00002923   0.00000000           -0.00       -4.30        0.00
  -0.00000000   0.00000000  -0.00010935           -0.00        0.00      -16.09


     Writing output data file ./work/LiC481.save/
 
     init_run     :      0.13s CPU      0.15s WALL (       2 calls)
     electrons    :     11.41s CPU     12.44s WALL (       7 calls)
     update_pot   :      0.06s CPU      0.07s WALL (       5 calls)
     forces       :      0.06s CPU      0.06s WALL (       7 calls)
     stress       :      0.16s CPU      0.17s WALL (       7 calls)

     Called by init_run:
     wfcinit      :      0.09s CPU      0.10s WALL (       2 calls)
     potinit      :      0.01s CPU      0.01s WALL (       2 calls)
     hinit0       :      0.01s CPU      0.01s WALL (       2 calls)

     Called by electrons:
     c_bands      :      9.87s CPU     10.63s WALL (      75 calls)
     sum_band     :      1.36s CPU      1.46s WALL (      75 calls)
     v_of_rho     :      0.14s CPU      0.16s WALL (      81 calls)
     mix_rho      :      0.03s CPU      0.03s WALL (      75 calls)

     Called by c_bands:
     init_us_2    :      0.08s CPU      0.09s WALL (    4482 calls)
     cegterg      :      9.63s CPU     10.36s WALL (    2028 calls)

     Called by *egterg:
     cdiaghg      :      0.87s CPU      0.93s WALL (    9841 calls)
     h_psi        :      8.15s CPU      8.77s WALL (   10060 calls)
     g_psi        :      0.02s CPU      0.02s WALL (    7978 calls)

     Called by h_psi:
     h_psi:calbec :      0.31s CPU      0.33s WALL (   10060 calls)
     vloc_psi     :      7.68s CPU      8.26s WALL (   10060 calls)
     add_vuspsi   :      0.08s CPU      0.09s WALL (   10060 calls)

     General routines
     calbec       :      0.34s CPU      0.36s WALL (   11005 calls)
     fft          :      0.13s CPU      0.14s WALL (     865 calls)
     ffts         :      0.01s CPU      0.01s WALL (      75 calls)
     fftw         :      8.44s CPU      9.07s WALL (  122608 calls)
 
     Parallel routines
     fft_scatt_xy :      0.56s CPU      0.60s WALL (  123548 calls)
     fft_scatt_yz :      4.90s CPU      5.26s WALL (  123548 calls)
 
     PWSCF        :     11.90s CPU     13.20s WALL

 
   This run was terminated on:  14:17: 7  19Jan2024            

=------------------------------------------------------------------------------=
   JOB DONE.
=------------------------------------------------------------------------------=
