
     Program PWSCF v.6.7MaX starts on 19Jan2024 at 15:40:40 

     This program is part of the open-source Quantum ESPRESSO suite
     for quantum simulation of materials; please cite
         "P. Giannozzi et al., J. Phys.:Condens. Matter 21 395502 (2009);
         "P. Giannozzi et al., J. Phys.:Condens. Matter 29 465901 (2017);
          URL http://www.quantum-espresso.org", 
     in publications or presentations arising from this work. More details at
     http://www.quantum-espresso.org/quote

     Parallel version (MPI), running on    32 processors

     MPI processes distributed on     1 nodes
     R & G space division:  proc/nbgrp/npool/nimage =      32
     Waiting for input...
     Reading input from standard input

     Current dimensions of program PWSCF are:
     Max number of different atomic species (ntypx) = 10
     Max number of k-points (npk) =  40000
     Max angular momentum in pseudopotentials (lmaxx) =  3
     Message from routine read_pp_mesh:
     mesh size missing, using the one in header

     Subspace diagonalization in iterative solution of the eigenvalue problem:
     a serial algorithm will be used

 
     Parallelization info
     --------------------
     sticks:   dense  smooth     PW     G-vecs:    dense   smooth      PW
     Min           4       4      1                  542      542      95
     Max           5       5      2                  597      597     142
     Sum         151     151     55                18333    18333    3809
 


     bravais-lattice index     =            4
     lattice parameter (alat)  =       3.3000  a.u.
     unit-cell volume          =     381.9562 (a.u.)^3
     number of atoms/cell      =            2
     number of atomic types    =            1
     number of electrons       =         8.00
     number of Kohn-Sham states=            8
     kinetic-energy cutoff     =      50.0000  Ry
     charge density cutoff     =     200.0000  Ry
     scf convergence threshold =      1.0E-08
     mixing beta               =       0.7000
     number of iterations used =            8  plain     mixing
     energy convergence thresh.=      1.0E-04
     force convergence thresh. =      1.0E-08
     press convergence thresh. =      1.0E-03
     Exchange-correlation= PBE
                           (   1   4   3   4   0   0   0)
     nstep                     =           50


     celldm(1)=   3.300000  celldm(2)=   0.000000  celldm(3)=  12.272727
     celldm(4)=   0.000000  celldm(5)=   0.000000  celldm(6)=   0.000000

     crystal axes: (cart. coord. in units of alat)
               a(1) = (   1.000000   0.000000   0.000000 )  
               a(2) = (  -0.500000   0.866025   0.000000 )  
               a(3) = (   0.000000   0.000000  12.272727 )  

     reciprocal axes: (cart. coord. in units 2 pi/alat)
               b(1) = (  1.000000  0.577350  0.000000 )  
               b(2) = (  0.000000  1.154701  0.000000 )  
               b(3) = (  0.000000  0.000000  0.081481 )  


     PseudoPot. # 1 for C  read from file:
     /home/yhkim/qe-6.7/pseudo/ONCV1/1.2/C_ONCV_PBE-1.2.upf
     MD5 check sum: 1a5f83a7b1f58d24996abe00ed223ac6
     Pseudo is Norm-conserving, Zval =  4.0
     Generated using ONCVPSP code by D. R. Hamann
     Using radial grid of  602 points,  4 beta functions with: 
                l(1) =   0
                l(2) =   0
                l(3) =   1
                l(4) =   1

     atomic species   valence    mass     pseudopotential
        C              4.00    12.01070     C ( 1.00)

     24 Sym. Ops., with inversion, found



   Cartesian axes

     site n.     atom                  positions (alat units)
         1           C   tau(   1) = (  -0.0000000   0.5773503   6.1363636  )
         2           C   tau(   2) = (   0.5000000   0.2886751   6.1363636  )

     number of k points=    27  Methfessel-Paxton smearing, width (Ry)=  0.0100
                       cart. coord. in units 2pi/alat
        k(    1) = (   0.0000000   0.0000000   0.0000000), wk =   0.0088889
        k(    2) = (   0.0000000   0.0769800   0.0000000), wk =   0.0533333
        k(    3) = (   0.0000000   0.1539601   0.0000000), wk =   0.0533333
        k(    4) = (   0.0000000   0.2309401   0.0000000), wk =   0.0533333
        k(    5) = (   0.0000000   0.3079201   0.0000000), wk =   0.0533333
        k(    6) = (   0.0000000   0.3849002   0.0000000), wk =   0.0533333
        k(    7) = (   0.0000000   0.4618802   0.0000000), wk =   0.0533333
        k(    8) = (   0.0000000   0.5388603   0.0000000), wk =   0.0533333
        k(    9) = (   0.0666667   0.1154701   0.0000000), wk =   0.0533333
        k(   10) = (   0.0666667   0.1924501   0.0000000), wk =   0.1066667
        k(   11) = (   0.0666667   0.2694301   0.0000000), wk =   0.1066667
        k(   12) = (   0.0666667   0.3464102   0.0000000), wk =   0.1066667
        k(   13) = (   0.0666667   0.4233902   0.0000000), wk =   0.1066667
        k(   14) = (   0.0666667   0.5003702   0.0000000), wk =   0.1066667
        k(   15) = (   0.0666667   0.5773503   0.0000000), wk =   0.0533333
        k(   16) = (   0.1333333   0.2309401   0.0000000), wk =   0.0533333
        k(   17) = (   0.1333333   0.3079201   0.0000000), wk =   0.1066667
        k(   18) = (   0.1333333   0.3849002   0.0000000), wk =   0.1066667
        k(   19) = (   0.1333333   0.4618802   0.0000000), wk =   0.1066667
        k(   20) = (   0.1333333   0.5388603   0.0000000), wk =   0.1066667
        k(   21) = (   0.2000000   0.3464102   0.0000000), wk =   0.0533333
        k(   22) = (   0.2000000   0.4233902   0.0000000), wk =   0.1066667
        k(   23) = (   0.2000000   0.5003702   0.0000000), wk =   0.1066667
        k(   24) = (   0.2000000   0.5773503   0.0000000), wk =   0.0533333
        k(   25) = (   0.2666667   0.4618802   0.0000000), wk =   0.0533333
        k(   26) = (   0.2666667   0.5388603   0.0000000), wk =   0.1066667
        k(   27) = (   0.3333333   0.5773503   0.0000000), wk =   0.0177778

     Dense  grid:    18333 G-vectors     FFT dimensions: (  15,  15, 192)

     Estimated max dynamical RAM per process >       1.29 MB

     Estimated total dynamical RAM >      41.28 MB
 ----2D----2D----2D----2D----2D----2D----2D----2D----2D----2D----2D----2D
  The code is running with the 2D cutoff
  Please refer to:
  Sohier, T., Calandra, M., & Mauri, F. (2017), 
  Density functional perturbation theory for gated two-dimensional heterostructu
 res:
  Theoretical developments and application to flexural phonons in graphene.
  Physical Review B, 96(7), 75448. https://doi.org/10.1103/PhysRevB.96.075448
 ----2D----2D----2D----2D----2D----2D----2D----2D----2D----2D----2D----2D

     Initial potential from superposition of free atoms

     starting charge    7.98607, renormalised to    8.00000

     negative rho (up, down):  8.576E-05 0.000E+00
     Starting wfcs are random

     total cpu time spent up to now is        0.1 secs

     Self-consistent Calculation

     iteration #  1     ecut=    50.00 Ry     beta= 0.70
     Davidson diagonalization with overlap
     ethr =  1.00E-02,  avg # of iterations = 14.0

     negative rho (up, down):  1.326E-06 0.000E+00

     total cpu time spent up to now is        0.5 secs

     total energy              =     -20.60757288 Ry
     estimated scf accuracy    <       1.53521907 Ry

     iteration #  2     ecut=    50.00 Ry     beta= 0.70
     Davidson diagonalization with overlap
     ethr =  1.00E-02,  avg # of iterations =  3.9

     total cpu time spent up to now is        0.6 secs

     total energy              =     -20.86671677 Ry
     estimated scf accuracy    <       0.02048771 Ry

     iteration #  3     ecut=    50.00 Ry     beta= 0.70
     Davidson diagonalization with overlap
     ethr =  2.56E-04,  avg # of iterations =  5.6

     total cpu time spent up to now is        0.7 secs

     total energy              =     -20.87146848 Ry
     estimated scf accuracy    <       0.00149881 Ry

     iteration #  4     ecut=    50.00 Ry     beta= 0.70
     Davidson diagonalization with overlap
     ethr =  1.87E-05,  avg # of iterations =  6.4

     total cpu time spent up to now is        0.9 secs

     total energy              =     -20.87717959 Ry
     estimated scf accuracy    <       0.00140319 Ry

     iteration #  5     ecut=    50.00 Ry     beta= 0.70
     Davidson diagonalization with overlap
     ethr =  1.75E-05,  avg # of iterations =  5.4

     negative rho (up, down):  9.370E-08 0.000E+00

     total cpu time spent up to now is        1.0 secs

     total energy              =     -20.87755994 Ry
     estimated scf accuracy    <       0.00017789 Ry

     iteration #  6     ecut=    50.00 Ry     beta= 0.70
     Davidson diagonalization with overlap
     c_bands:  1 eigenvalues not converged
     ethr =  2.22E-06,  avg # of iterations =  7.4

     total cpu time spent up to now is        1.2 secs

     total energy              =     -20.87736007 Ry
     estimated scf accuracy    <       0.00102511 Ry

     iteration #  7     ecut=    50.00 Ry     beta= 0.70
     Davidson diagonalization with overlap
     ethr =  2.22E-06,  avg # of iterations =  6.3

     total cpu time spent up to now is        1.4 secs

     total energy              =     -20.87754305 Ry
     estimated scf accuracy    <       0.00003055 Ry

     iteration #  8     ecut=    50.00 Ry     beta= 0.70
     Davidson diagonalization with overlap
     ethr =  3.82E-07,  avg # of iterations =  2.0

     total cpu time spent up to now is        1.4 secs

     total energy              =     -20.87755174 Ry
     estimated scf accuracy    <       0.00000920 Ry

     iteration #  9     ecut=    50.00 Ry     beta= 0.70
     Davidson diagonalization with overlap
     ethr =  1.15E-07,  avg # of iterations =  1.1

     total cpu time spent up to now is        1.5 secs

     total energy              =     -20.87755303 Ry
     estimated scf accuracy    <       0.00000008 Ry

     iteration # 10     ecut=    50.00 Ry     beta= 0.70
     Davidson diagonalization with overlap
     ethr =  9.79E-10,  avg # of iterations =  2.3

     total cpu time spent up to now is        1.6 secs

     total energy              =     -20.87755302 Ry
     estimated scf accuracy    <       0.00000006 Ry

     iteration # 11     ecut=    50.00 Ry     beta= 0.70
     Davidson diagonalization with overlap
     ethr =  8.11E-10,  avg # of iterations =  1.5

     total cpu time spent up to now is        1.7 secs

     End of self-consistent calculation

          k = 0.0000 0.0000 0.0000 (  2311 PWs)   bands (ev):

   -30.1154 -18.7620  -2.1136  -1.8866  -1.2770   0.0170   0.4585   1.7530

          k = 0.0000 0.0770 0.0000 (  2315 PWs)   bands (ev):

   -29.9495 -18.4863  -2.6630  -2.5292  -1.8271  -0.9858   0.3045   0.7500

          k = 0.0000 0.1540 0.0000 (  2307 PWs)   bands (ev):

   -29.4563 -17.6646  -4.6841  -4.0564  -0.9743  -0.1129   1.1712   1.6239

          k = 0.0000 0.2309 0.0000 (  2283 PWs)   bands (ev):

   -28.6493 -16.3009  -7.3716  -5.8521   0.4461   1.3411   2.6177   3.0797

          k = 0.0000 0.3079 0.0000 (  2268 PWs)   bands (ev):

   -27.5555 -14.4158 -10.2607  -7.5223   2.4311   3.3719   4.6431   5.1136

          k = 0.0000 0.3849 0.0000 (  2278 PWs)   bands (ev):

   -26.2319 -13.0524 -12.0446  -8.8753   4.9764   5.9432   7.2461   7.6648

          k = 0.0000 0.4619 0.0000 (  2246 PWs)   bands (ev):

   -24.8015 -15.4986  -9.8059  -9.3065   4.5403   8.0766   9.2561  10.4261

          k = 0.0000 0.5389 0.0000 (  2278 PWs)   bands (ev):

   -23.6545 -17.1690 -10.2875  -6.7502   1.0747  11.7198  13.0011  14.1792

          k = 0.0667 0.1155 0.0000 (  2311 PWs)   bands (ev):

   -29.6200 -17.9374  -3.8866  -3.7766  -1.2555  -0.4037   0.8825   1.3327

          k = 0.0667 0.1925 0.0000 (  2295 PWs)   bands (ev):

   -28.9698 -16.8447  -6.1250  -5.5006  -0.1171   0.7598   2.0403   2.4976

          k = 0.0667 0.2694 0.0000 (  2272 PWs)   bands (ev):

   -28.0185 -15.2188  -8.8724  -7.2036   1.5864   2.5029   3.7769   4.2432

          k = 0.0667 0.3464 0.0000 (  2273 PWs)   bands (ev):

   -26.8063 -13.0846 -11.6890  -8.6790   3.8521   4.8166   6.0914   6.5603

          k = 0.0667 0.4234 0.0000 (  2269 PWs)   bands (ev):

   -25.4130 -14.3042 -10.5074  -9.7915   6.6501   6.6751   7.9224   8.9831

          k = 0.0667 0.5004 0.0000 (  2281 PWs)   bands (ev):

   -24.0540 -16.4213 -10.4814  -7.7212   2.6882  10.0474  11.2588  12.4507

          k = 0.0667 0.5774 0.0000 (  2288 PWs)   bands (ev):

   -23.3775 -17.3542 -10.7146  -6.0313   0.5375  13.8453  14.0708  15.2378

          k = 0.1333 0.2309 0.0000 (  2291 PWs)   bands (ev):

   -28.1749 -15.4896  -7.8802  -7.6148   1.3085   2.2128   3.4893   3.9527

          k = 0.1333 0.3079 0.0000 (  2268 PWs)   bands (ev):

   -27.1021 -13.6098 -10.4124  -9.1657   3.2961   4.2432   5.5162   5.9865

          k = 0.1333 0.3849 0.0000 (  2266 PWs)   bands (ev):

   -25.8051 -13.0053 -11.2488 -10.3782   5.8414   6.8168   8.1200   8.5141

          k = 0.1333 0.4619 0.0000 (  2274 PWs)   bands (ev):

   -24.4132 -15.3176 -11.2218  -8.5152   4.8050   8.9374  10.0768  11.2996

          k = 0.1333 0.5389 0.0000 (  2300 PWs)   bands (ev):

   -23.3088 -16.8995 -11.6552  -5.9305   1.3986  12.5708  13.7962  15.0524

          k = 0.2000 0.3464 0.0000 (  2262 PWs)   bands (ev):

   -25.9404 -12.1003 -11.4979 -11.0516   5.5650   6.5560   7.8329   8.3048

          k = 0.2000 0.4234 0.0000 (  2271 PWs)   bands (ev):

   -24.6192 -14.1528 -12.2229  -8.9444   6.6416   8.3843   9.4368  10.7248

          k = 0.2000 0.5004 0.0000 (  2291 PWs)   bands (ev):

   -23.3573 -15.9708 -12.8679  -6.1475   3.0064  11.7403  12.7696  14.1893

          k = 0.2000 0.5774 0.0000 (  2306 PWs)   bands (ev):

   -22.7454 -16.7816 -13.0794  -4.3542   0.9045  14.9069  15.5832  15.6231

          k = 0.2667 0.4619 0.0000 (  2284 PWs)   bands (ev):

   -23.3909 -15.2107 -13.7211  -6.2600   3.9207  11.4631  12.2799  13.9013

          k = 0.2667 0.5389 0.0000 (  2281 PWs)   bands (ev):

   -22.4730 -16.1156 -14.4260  -3.5557   1.1647  12.8637  15.0443  16.7388

          k = 0.3333 0.5774 0.0000 (  2268 PWs)   bands (ev):

   -22.1096 -15.5926 -15.5926  -1.0208  -1.0208  11.9510  18.6876  18.6877

     the Fermi energy is    -1.8472 ev

!    total energy              =     -20.87755303 Ry
     estimated scf accuracy    <          2.1E-09 Ry
     smearing contrib. (-TS)   =      -0.00007815 Ry
     internal energy E=F+TS    =     -20.87747488 Ry

     The total energy is F=E-TS. E is the sum of the following terms:
     one-electron contribution =    -778.81762546 Ry
     hartree contribution      =     390.85667543 Ry
     xc contribution           =      -8.81846414 Ry
     ewald contribution        =     375.90193928 Ry

     convergence has been achieved in  11 iterations

     Forces acting on atoms (cartesian axes, Ry/au):

     atom    1 type  1   force =     0.00000000    0.00000000    0.00000000
     atom    2 type  1   force =    -0.00000000   -0.00000000    0.00000000

     Total force =     0.000000     Total SCF correction =     0.000000


     Computing stress (Cartesian axis) and pressure

          total   stress  (Ry/bohr**3)                   (kbar)     P=     1691.46
   0.01741963   0.00000000   0.00000000         2562.52        0.00        0.00
   0.00000000   0.01741963   0.00000000            0.00     2562.52        0.00
   0.00000000   0.00000000  -0.00034425            0.00        0.00      -50.64


     BFGS Geometry Optimization
     Energy error            =      0.0E+00
     Gradient error          =      1.7E-26
     Cell gradient error     =      1.7E-02


     number of scf cycles    =   1
     number of bfgs steps    =   0

     enthalpy new            =     -20.8775530347 Ry

     new trust radius        =       0.5000000000 bohr
     new conv_thr            =       0.0000000100 Ry

     new unit-cell volume =    485.92467 a.u.^3 (    72.00661 Ang^3 )
     density =      0.55396 g/cm^3

CELL_PARAMETERS (alat=  3.30000000)
   1.127918467   0.000000000   0.000000000
  -0.563959234   0.976806046   0.000000000
   0.000000000   0.000000000  12.272727273

ATOMIC_POSITIONS (crystal)
C             0.3333333333        0.6666666667        0.5000000000
C             0.6666666667        0.3333333333        0.5000000000



     Writing output data file ./work/LiC330.save/
     NEW-OLD atomic charge density approx. for the potential

     negative rho (up, down):  1.223E-04 0.000E+00
     extrapolated charge    9.70870, renormalised to    8.00000

     total cpu time spent up to now is        1.8 secs

     Self-consistent Calculation

     iteration #  1     ecut=    50.00 Ry     beta= 0.70
     Davidson diagonalization with overlap
     c_bands:  5 eigenvalues not converged
     c_bands:  3 eigenvalues not converged
     c_bands:  2 eigenvalues not converged
     c_bands:  4 eigenvalues not converged
     c_bands:  3 eigenvalues not converged
     c_bands:  5 eigenvalues not converged
     c_bands:  5 eigenvalues not converged
     c_bands:  5 eigenvalues not converged
     c_bands:  4 eigenvalues not converged
     c_bands:  4 eigenvalues not converged
     c_bands:  3 eigenvalues not converged
     c_bands:  5 eigenvalues not converged
     c_bands:  5 eigenvalues not converged
     c_bands:  5 eigenvalues not converged
     c_bands:  5 eigenvalues not converged
     c_bands:  2 eigenvalues not converged
     c_bands:  5 eigenvalues not converged
     c_bands:  5 eigenvalues not converged
     c_bands:  5 eigenvalues not converged
     c_bands:  5 eigenvalues not converged
     c_bands:  2 eigenvalues not converged
     c_bands:  5 eigenvalues not converged
     c_bands:  5 eigenvalues not converged
     c_bands:  5 eigenvalues not converged
     ethr =  1.00E-06,  avg # of iterations = 40.6

     negative rho (up, down):  4.369E-06 0.000E+00

     total cpu time spent up to now is        3.0 secs

     total energy              =    1080.08775788 Ry
     estimated scf accuracy    <     596.97594237 Ry

     iteration #  2     ecut=    50.00 Ry     beta= 0.70
     Davidson diagonalization with overlap
     c_bands:  1 eigenvalues not converged
     c_bands:  5 eigenvalues not converged
     c_bands:  2 eigenvalues not converged
     c_bands:  5 eigenvalues not converged
     c_bands:  3 eigenvalues not converged
     c_bands:  5 eigenvalues not converged
     c_bands:  5 eigenvalues not converged
     c_bands:  2 eigenvalues not converged
     c_bands:  4 eigenvalues not converged
     c_bands:  4 eigenvalues not converged
     c_bands:  4 eigenvalues not converged
     c_bands:  5 eigenvalues not converged
     c_bands:  5 eigenvalues not converged
     c_bands:  1 eigenvalues not converged
     c_bands:  5 eigenvalues not converged
     c_bands:  4 eigenvalues not converged
     ethr =  1.00E-02,  avg # of iterations = 39.9

     negative rho (up, down):  2.249E-06 0.000E+00

     total cpu time spent up to now is        4.2 secs

     total energy              =    -225.01550916 Ry
     estimated scf accuracy    <     302.95415394 Ry

     iteration #  3     ecut=    50.00 Ry     beta= 0.70
     Davidson diagonalization with overlap
     c_bands:  2 eigenvalues not converged
     ethr =  1.00E-02,  avg # of iterations =  5.7

     negative rho (up, down):  4.436E-07 0.000E+00

     total cpu time spent up to now is        4.4 secs

     total energy              =     -63.44984841 Ry
     estimated scf accuracy    <     104.94765008 Ry

     iteration #  4     ecut=    50.00 Ry     beta= 0.70
     Davidson diagonalization with overlap
     c_bands:  1 eigenvalues not converged
     ethr =  1.00E-02,  avg # of iterations =  5.0

     negative rho (up, down):  6.351E-07 0.000E+00

     total cpu time spent up to now is        4.5 secs

     total energy              =     -74.36087309 Ry
     estimated scf accuracy    <      22.00423100 Ry

     iteration #  5     ecut=    50.00 Ry     beta= 0.70
     Davidson diagonalization with overlap
     ethr =  1.00E-02,  avg # of iterations =  1.1

     negative rho (up, down):  1.088E-07 0.000E+00

     total cpu time spent up to now is        4.6 secs

     total energy              =     -28.02350272 Ry
     estimated scf accuracy    <      27.13671701 Ry

     iteration #  6     ecut=    50.00 Ry     beta= 0.70
     Davidson diagonalization with overlap
     ethr =  1.00E-02,  avg # of iterations =  4.4

     negative rho (up, down):  7.129E-08 0.000E+00

     total cpu time spent up to now is        4.7 secs

     total energy              =     -33.50749856 Ry
     estimated scf accuracy    <       3.50709346 Ry

     iteration #  7     ecut=    50.00 Ry     beta= 0.70
     Davidson diagonalization with overlap
     ethr =  1.00E-02,  avg # of iterations =  1.0

     negative rho (up, down):  4.286E-03 0.000E+00

     total cpu time spent up to now is        4.8 secs

     total energy              =     -25.75881027 Ry
     estimated scf accuracy    <       6.01190914 Ry

     iteration #  8     ecut=    50.00 Ry     beta= 0.70
     Davidson diagonalization with overlap
     ethr =  1.00E-02,  avg # of iterations =  2.5

     negative rho (up, down):  1.096E-01 0.000E+00

     total cpu time spent up to now is        4.9 secs

     total energy              =     -22.15526754 Ry
     estimated scf accuracy    <       2.07804534 Ry

     iteration #  9     ecut=    50.00 Ry     beta= 0.70
     Davidson diagonalization with overlap
     ethr =  1.00E-02,  avg # of iterations = 10.2

     negative rho (up, down):  1.081E-01 0.000E+00

     total cpu time spent up to now is        5.2 secs

     total energy              =     -43.83267773 Ry
     estimated scf accuracy    <     555.07501549 Ry

     iteration # 10     ecut=    50.00 Ry     beta= 0.70
     Davidson diagonalization with overlap
     ethr =  1.00E-02,  avg # of iterations =  1.1

     negative rho (up, down):  1.511E-03 0.000E+00

     total cpu time spent up to now is        5.2 secs

     total energy              =     -12.74061881 Ry
     estimated scf accuracy    <     552.91772096 Ry

     iteration # 11     ecut=    50.00 Ry     beta= 0.70
     Davidson diagonalization with overlap
     ethr =  1.00E-02,  avg # of iterations =  7.8

     negative rho (up, down):  2.246E-03 0.000E+00

     total cpu time spent up to now is        5.5 secs

     total energy              =     -21.63518849 Ry
     estimated scf accuracy    <      24.29803838 Ry

     iteration # 12     ecut=    50.00 Ry     beta= 0.70
     Davidson diagonalization with overlap
     ethr =  1.00E-02,  avg # of iterations =  3.3

     negative rho (up, down):  1.691E-03 0.000E+00

     total cpu time spent up to now is        5.6 secs

     total energy              =     -21.67825034 Ry
     estimated scf accuracy    <       9.38787223 Ry

     iteration # 13     ecut=    50.00 Ry     beta= 0.70
     Davidson diagonalization with overlap
     ethr =  1.00E-02,  avg # of iterations =  1.2

     negative rho (up, down):  1.056E-02 0.000E+00

     total cpu time spent up to now is        5.7 secs

     total energy              =     -21.18937162 Ry
     estimated scf accuracy    <       8.29259895 Ry

     iteration # 14     ecut=    50.00 Ry     beta= 0.70
     Davidson diagonalization with overlap
     ethr =  1.00E-02,  avg # of iterations =  4.2

     negative rho (up, down):  6.700E-02 0.000E+00

     total cpu time spent up to now is        5.8 secs

     total energy              =     -21.57980896 Ry
     estimated scf accuracy    <       1.18291067 Ry

     iteration # 15     ecut=    50.00 Ry     beta= 0.70
     Davidson diagonalization with overlap
     ethr =  1.00E-02,  avg # of iterations =  6.4

     negative rho (up, down):  6.216E-02 0.000E+00

     total cpu time spent up to now is        6.0 secs

     total energy              =     -22.42471068 Ry
     estimated scf accuracy    <       0.50771656 Ry

     iteration # 16     ecut=    50.00 Ry     beta= 0.70
     Davidson diagonalization with overlap
     ethr =  6.35E-03,  avg # of iterations =  1.9

     negative rho (up, down):  5.375E-02 0.000E+00

     total cpu time spent up to now is        6.0 secs

     total energy              =     -22.94286910 Ry
     estimated scf accuracy    <       0.20613643 Ry

     iteration # 17     ecut=    50.00 Ry     beta= 0.70
     Davidson diagonalization with overlap
     ethr =  2.58E-03,  avg # of iterations =  6.3

     negative rho (up, down):  6.599E-02 0.000E+00

     total cpu time spent up to now is        6.2 secs

     total energy              =     -23.08001143 Ry
     estimated scf accuracy    <       0.47533576 Ry

     iteration # 18     ecut=    50.00 Ry     beta= 0.70
     Davidson diagonalization with overlap
     ethr =  2.58E-03,  avg # of iterations =  1.0

     negative rho (up, down):  3.642E-02 0.000E+00

     total cpu time spent up to now is        6.3 secs

     total energy              =     -22.37292271 Ry
     estimated scf accuracy    <       0.54323968 Ry

     iteration # 19     ecut=    50.00 Ry     beta= 0.70
     Davidson diagonalization with overlap
     ethr =  2.58E-03,  avg # of iterations =  2.0

     negative rho (up, down):  3.414E-02 0.000E+00

     total cpu time spent up to now is        6.4 secs

     total energy              =     -22.13111504 Ry
     estimated scf accuracy    <       0.17157097 Ry

     iteration # 20     ecut=    50.00 Ry     beta= 0.70
     Davidson diagonalization with overlap
     ethr =  2.14E-03,  avg # of iterations =  3.0

     negative rho (up, down):  4.529E-02 0.000E+00

     total cpu time spent up to now is        6.5 secs

     total energy              =     -22.06494483 Ry
     estimated scf accuracy    <       0.04081168 Ry

     iteration # 21     ecut=    50.00 Ry     beta= 0.70
     Davidson diagonalization with overlap
     ethr =  5.10E-04,  avg # of iterations =  6.5

     negative rho (up, down):  4.311E-02 0.000E+00

     total cpu time spent up to now is        6.6 secs

     total energy              =     -22.06952520 Ry
     estimated scf accuracy    <       0.01073361 Ry

     iteration # 22     ecut=    50.00 Ry     beta= 0.70
     Davidson diagonalization with overlap
     ethr =  1.34E-04,  avg # of iterations =  1.5

     negative rho (up, down):  3.837E-02 0.000E+00

     total cpu time spent up to now is        6.7 secs

     total energy              =     -22.06944809 Ry
     estimated scf accuracy    <       0.01022369 Ry

     iteration # 23     ecut=    50.00 Ry     beta= 0.70
     Davidson diagonalization with overlap
     ethr =  1.28E-04,  avg # of iterations =  9.4

     negative rho (up, down):  2.219E-02 0.000E+00

     total cpu time spent up to now is        6.9 secs

     total energy              =     -22.05056909 Ry
     estimated scf accuracy    <       0.06135610 Ry

     iteration # 24     ecut=    50.00 Ry     beta= 0.70
     Davidson diagonalization with overlap
     ethr =  1.28E-04,  avg # of iterations =  4.6

     negative rho (up, down):  5.887E-03 0.000E+00

     total cpu time spent up to now is        7.0 secs

     total energy              =     -22.05914965 Ry
     estimated scf accuracy    <       0.00362179 Ry

     iteration # 25     ecut=    50.00 Ry     beta= 0.70
     Davidson diagonalization with overlap
     ethr =  4.53E-05,  avg # of iterations =  6.6

     negative rho (up, down):  1.831E-03 0.000E+00

     total cpu time spent up to now is        7.2 secs

     total energy              =     -22.06018673 Ry
     estimated scf accuracy    <       0.00047117 Ry

     iteration # 26     ecut=    50.00 Ry     beta= 0.70
     Davidson diagonalization with overlap
     ethr =  5.89E-06,  avg # of iterations =  6.7

     negative rho (up, down):  1.451E-03 0.000E+00

     total cpu time spent up to now is        7.3 secs

     total energy              =     -22.06027619 Ry
     estimated scf accuracy    <       0.00025990 Ry

     iteration # 27     ecut=    50.00 Ry     beta= 0.70
     Davidson diagonalization with overlap
     ethr =  3.25E-06,  avg # of iterations =  6.9

     negative rho (up, down):  1.334E-03 0.000E+00

     total cpu time spent up to now is        7.5 secs

     total energy              =     -22.06029723 Ry
     estimated scf accuracy    <       0.00001851 Ry

     iteration # 28     ecut=    50.00 Ry     beta= 0.70
     Davidson diagonalization with overlap
     ethr =  2.31E-07,  avg # of iterations =  2.1

     negative rho (up, down):  1.301E-03 0.000E+00

     total cpu time spent up to now is        7.6 secs

     total energy              =     -22.06029609 Ry
     estimated scf accuracy    <       0.00001112 Ry

     iteration # 29     ecut=    50.00 Ry     beta= 0.70
     Davidson diagonalization with overlap
     ethr =  1.39E-07,  avg # of iterations =  1.0

     negative rho (up, down):  9.751E-04 0.000E+00

     total cpu time spent up to now is        7.7 secs

     total energy              =     -22.06028702 Ry
     estimated scf accuracy    <       0.00000955 Ry

     iteration # 30     ecut=    50.00 Ry     beta= 0.70
     Davidson diagonalization with overlap
     ethr =  1.19E-07,  avg # of iterations =  4.4

     negative rho (up, down):  3.678E-04 0.000E+00

     total cpu time spent up to now is        7.8 secs

     total energy              =     -22.06027313 Ry
     estimated scf accuracy    <       0.00000581 Ry

     iteration # 31     ecut=    50.00 Ry     beta= 0.70
     Davidson diagonalization with overlap
     ethr =  7.26E-08,  avg # of iterations =  5.4

     negative rho (up, down):  2.997E-04 0.000E+00

     total cpu time spent up to now is        7.9 secs

     total energy              =     -22.06027226 Ry
     estimated scf accuracy    <       0.00000095 Ry

     iteration # 32     ecut=    50.00 Ry     beta= 0.70
     Davidson diagonalization with overlap
     ethr =  1.18E-08,  avg # of iterations =  1.4

     negative rho (up, down):  2.317E-06 0.000E+00

     total cpu time spent up to now is        8.0 secs

     total energy              =     -22.06026860 Ry
     estimated scf accuracy    <       0.00000071 Ry

     iteration # 33     ecut=    50.00 Ry     beta= 0.70
     Davidson diagonalization with overlap
     ethr =  8.87E-09,  avg # of iterations =  5.6

     total cpu time spent up to now is        8.1 secs

     End of self-consistent calculation

          k = 0.0000 0.0000 0.0000 (  2311 PWs)   bands (ev):

   -27.1637 -15.0283  -3.6736  -3.6736  -1.0836  -0.2593   0.4742   0.8342

          k =-0.0000 0.0682 0.0000 (  2315 PWs)   bands (ev):

   -27.0154 -14.8162  -4.2850  -4.1262  -0.8623  -0.0308   0.7020   1.0629

          k =-0.0000 0.1365 0.0000 (  2307 PWs)   bands (ev):

   -26.5719 -14.1846  -5.9044  -5.2174  -0.1942   0.6544   1.3865   1.7487

          k =-0.0000 0.2047 0.0000 (  2283 PWs)   bands (ev):

   -25.8373 -13.1371  -8.1198  -6.5269   0.9219   1.7951   2.5284   2.8908

          k =-0.0000 0.2730 0.0000 (  2268 PWs)   bands (ev):

   -24.8196 -11.6951 -10.5880  -7.7633   2.4839   3.3867   4.1275   4.4847

          k =-0.0000 0.3412 0.0000 (  2278 PWs)   bands (ev):

   -23.5501 -13.0804  -9.8906  -8.7761   4.4866   5.3384   6.1831   6.2796

          k =-0.0000 0.4095 0.0000 (  2246 PWs)   bands (ev):

   -22.0563 -15.4301  -9.4700  -7.8325   3.0425   6.9268   7.9951   8.6950

          k =-0.0000 0.4777 0.0000 (  2278 PWs)   bands (ev):

   -20.5524 -17.3898  -9.8378  -5.9796   0.5177   9.7939  10.9364  11.6609

          k = 0.0591 0.1024 0.0000 (  2311 PWs)   bands (ev):

   -26.7195 -14.3942  -5.2904  -5.0026  -0.4166   0.4261   1.1583   1.5202

          k = 0.0591 0.1706 0.0000 (  2295 PWs)   bands (ev):

   -26.1304 -13.5543  -7.0626  -6.3235   0.4774   1.3392   2.0720   2.4342

          k = 0.0591 0.2389 0.0000 (  2272 PWs)   bands (ev):

   -25.2541 -12.3084  -9.3485  -7.6224   1.8177   2.7063   3.4428   3.8032

          k = 0.0591 0.3071 0.0000 (  2273 PWs)   bands (ev):

   -24.1104 -11.8082 -10.6792  -8.7435   3.6010   4.5150   5.2704   5.6136

          k = 0.0591 0.3754 0.0000 (  2269 PWs)   bands (ev):

   -22.7234 -14.2237  -9.5868  -8.7282   4.6498   5.8230   6.8748   7.5544

          k = 0.0591 0.4436 0.0000 (  2281 PWs)   bands (ev):

   -21.1709 -16.4285 -10.1125  -6.6612   1.6502   8.4773   9.5672  10.2939

          k = 0.0591 0.5119 0.0000 (  2288 PWs)   bands (ev):

   -20.0948 -17.7272 -10.2896  -5.4683   0.1208  11.5373  11.5667  12.7395

          k = 0.1182 0.2047 0.0000 (  2291 PWs)   bands (ev):

   -25.3997 -12.5162  -8.4366  -8.0844   1.5975   2.4790   3.2150   3.5756

          k = 0.1182 0.2730 0.0000 (  2268 PWs)   bands (ev):

   -24.3964 -11.0785 -10.5265  -9.4056   3.1612   4.0705   4.8148   5.1699

          k = 0.1182 0.3412 0.0000 (  2266 PWs)   bands (ev):

   -23.1294 -12.8848 -10.3549  -9.2835   5.1651   5.9435   6.4277   6.8710

          k = 0.1182 0.4095 0.0000 (  2274 PWs)   bands (ev):

   -21.6471 -15.1659 -11.0077  -7.2289   3.1048   7.6023   8.6293   9.3829

          k = 0.1182 0.4777 0.0000 (  2300 PWs)   bands (ev):

   -20.1528 -17.0876 -11.3458  -5.3490   0.6405  10.4605  11.5225  12.3493

          k = 0.1773 0.3071 0.0000 (  2262 PWs)   bands (ev):

   -23.2685 -11.5676 -11.4988  -9.4699   4.9461   5.8815   6.6433   6.9864

          k = 0.1773 0.3754 0.0000 (  2271 PWs)   bands (ev):

   -21.8996 -13.7624 -12.2806  -7.5402   4.2858   7.1648   8.1229   8.9274

          k = 0.1773 0.4436 0.0000 (  2291 PWs)   bands (ev):

   -20.3741 -15.8476 -12.7479  -5.4584   1.6289   9.8039  10.6736  11.6655

          k = 0.1773 0.5119 0.0000 (  2306 PWs)   bands (ev):

   -19.3036 -17.1152 -12.9068  -4.1767   0.1383  12.1389  12.7912  12.8768

          k = 0.2364 0.4095 0.0000 (  2284 PWs)   bands (ev):

   -20.4673 -14.6294 -14.0208  -5.5240   2.1632   9.5845  10.2844  11.4374

          k = 0.2364 0.4777 0.0000 (  2281 PWs)   bands (ev):

   -19.0248 -16.1926 -14.5115  -3.5261   0.1089  10.8160  12.3918  13.9269

          k = 0.2955 0.5119 0.0000 (  2268 PWs)   bands (ev):

   -18.2376 -15.8710 -15.8710  -1.6146  -1.6146  10.2476  15.1840  15.1842

     the Fermi energy is    -1.6146 ev

!    total energy              =     -22.06026867 Ry
     estimated scf accuracy    <          2.9E-09 Ry
     smearing contrib. (-TS)   =      -0.00005015 Ry
     internal energy E=F+TS    =     -22.06021852 Ry

     The total energy is F=E-TS. E is the sum of the following terms:
     one-electron contribution =    -610.21371346 Ry
     hartree contribution      =     306.41459999 Ry
     xc contribution           =      -8.12315173 Ry
     ewald contribution        =     289.86204669 Ry

     convergence has been achieved in  33 iterations

     Forces acting on atoms (cartesian axes, Ry/au):

     atom    1 type  1   force =     0.00000000    0.00000000    0.00000000
     atom    2 type  1   force =    -0.00000000   -0.00000000    0.00000000

     Total force =     0.000000     Total SCF correction =     0.000000


     Computing stress (Cartesian axis) and pressure

          total   stress  (Ry/bohr**3)                   (kbar)     P=      657.59
   0.00686764   0.00000000   0.00000000         1010.26        0.00        0.00
   0.00000000   0.00686764  -0.00000000            0.00     1010.26       -0.00
   0.00000000  -0.00000000  -0.00032475            0.00       -0.00      -47.77

     Energy error            =      1.2E+00
     Gradient error          =      1.5E-26
     Cell gradient error     =      6.9E-03


     number of scf cycles    =   2
     number of bfgs steps    =   1

     enthalpy old            =     -20.8775530347 Ry
     enthalpy new            =     -22.0602686666 Ry

     CASE: enthalpy_new < enthalpy_old

     new trust radius        =       0.4003794513 bohr
     new conv_thr            =            1.0E-10 Ry

     new unit-cell volume =    578.19071 a.u.^3 (    85.67902 Ang^3 )
     density =      0.46556 g/cm^3

CELL_PARAMETERS (alat=  3.30000000)
   1.230350318   0.000000000   0.000000000
  -0.615175159   1.065514631   0.000000000
   0.000000000   0.000000000  12.272727273

ATOMIC_POSITIONS (crystal)
C             0.3333333333        0.6666666667        0.5000000000
C             0.6666666667        0.3333333333        0.5000000000



     Writing output data file ./work/LiC330.save/
     NEW-OLD atomic charge density approx. for the potential

     negative rho (up, down):  5.391E-04 0.000E+00
     extrapolated charge    9.27439, renormalised to    8.00000

     total cpu time spent up to now is        8.2 secs

     Self-consistent Calculation

     iteration #  1     ecut=    50.00 Ry     beta= 0.70
     Davidson diagonalization with overlap
     c_bands:  5 eigenvalues not converged
     c_bands:  5 eigenvalues not converged
     c_bands:  5 eigenvalues not converged
     c_bands:  5 eigenvalues not converged
     c_bands:  5 eigenvalues not converged
     c_bands:  5 eigenvalues not converged
     c_bands:  4 eigenvalues not converged
     c_bands:  5 eigenvalues not converged
     c_bands:  5 eigenvalues not converged
     c_bands:  5 eigenvalues not converged
     c_bands:  5 eigenvalues not converged
     c_bands:  5 eigenvalues not converged
     c_bands:  4 eigenvalues not converged
     c_bands:  4 eigenvalues not converged
     c_bands:  4 eigenvalues not converged
     c_bands:  5 eigenvalues not converged
     c_bands:  5 eigenvalues not converged
     c_bands:  2 eigenvalues not converged
     c_bands:  5 eigenvalues not converged
     c_bands:  4 eigenvalues not converged
     c_bands:  2 eigenvalues not converged
     c_bands:  5 eigenvalues not converged
     c_bands:  5 eigenvalues not converged
     c_bands:  1 eigenvalues not converged
     c_bands:  5 eigenvalues not converged
     c_bands:  4 eigenvalues not converged
     c_bands:  3 eigenvalues not converged
     ethr =  1.00E-06,  avg # of iterations = 30.4

     negative rho (up, down):  8.003E-05 0.000E+00

     total cpu time spent up to now is        9.2 secs

     total energy              =     879.46986784 Ry
     estimated scf accuracy    <     490.49009777 Ry

     iteration #  2     ecut=    50.00 Ry     beta= 0.70
     Davidson diagonalization with overlap
     c_bands:  5 eigenvalues not converged
     c_bands:  2 eigenvalues not converged
     c_bands:  4 eigenvalues not converged
     c_bands:  3 eigenvalues not converged
     c_bands:  5 eigenvalues not converged
     c_bands:  4 eigenvalues not converged
     c_bands:  3 eigenvalues not converged
     c_bands:  4 eigenvalues not converged
     c_bands:  5 eigenvalues not converged
     c_bands:  1 eigenvalues not converged
     c_bands:  4 eigenvalues not converged
     c_bands:  5 eigenvalues not converged
     c_bands:  3 eigenvalues not converged
     c_bands:  2 eigenvalues not converged
     c_bands:  1 eigenvalues not converged
     c_bands:  1 eigenvalues not converged
     ethr =  1.00E-02,  avg # of iterations = 39.7

     negative rho (up, down):  4.070E-05 0.000E+00

     total cpu time spent up to now is       10.4 secs

     total energy              =    -188.13374367 Ry
     estimated scf accuracy    <     248.54148525 Ry

     iteration #  3     ecut=    50.00 Ry     beta= 0.70
     Davidson diagonalization with overlap
     ethr =  1.00E-02,  avg # of iterations =  5.4

     negative rho (up, down):  8.279E-06 0.000E+00

     total cpu time spent up to now is       10.5 secs

     total energy              =     -57.18396460 Ry
     estimated scf accuracy    <      86.06868112 Ry

     iteration #  4     ecut=    50.00 Ry     beta= 0.70
     Davidson diagonalization with overlap
     ethr =  1.00E-02,  avg # of iterations =  4.4

     negative rho (up, down):  1.434E-05 0.000E+00

     total cpu time spent up to now is       10.7 secs

     total energy              =     -69.36247831 Ry
     estimated scf accuracy    <      18.48635598 Ry

     iteration #  5     ecut=    50.00 Ry     beta= 0.70
     Davidson diagonalization with overlap
     ethr =  1.00E-02,  avg # of iterations =  1.1

     negative rho (up, down):  2.615E-06 0.000E+00

     total cpu time spent up to now is       10.7 secs

     total energy              =     -29.88434922 Ry
     estimated scf accuracy    <      24.43014963 Ry

     iteration #  6     ecut=    50.00 Ry     beta= 0.70
     Davidson diagonalization with overlap
     ethr =  1.00E-02,  avg # of iterations =  3.4

     negative rho (up, down):  6.171E-07 0.000E+00

     total cpu time spent up to now is       10.8 secs

     total energy              =     -28.25657466 Ry
     estimated scf accuracy    <       4.24605976 Ry

     iteration #  7     ecut=    50.00 Ry     beta= 0.70
     Davidson diagonalization with overlap
     ethr =  1.00E-02,  avg # of iterations =  1.4

     negative rho (up, down):  2.131E-06 0.000E+00

     total cpu time spent up to now is       10.9 secs

     total energy              =     -32.82123158 Ry
     estimated scf accuracy    <       3.17747802 Ry

     iteration #  8     ecut=    50.00 Ry     beta= 0.70
     Davidson diagonalization with overlap
     ethr =  1.00E-02,  avg # of iterations =  1.0

     negative rho (up, down):  1.914E-06 0.000E+00

     total cpu time spent up to now is       11.0 secs

     total energy              =     -32.34609832 Ry
     estimated scf accuracy    <       5.49126613 Ry

     iteration #  9     ecut=    50.00 Ry     beta= 0.70
     Davidson diagonalization with overlap
     ethr =  1.00E-02,  avg # of iterations =  1.0

     negative rho (up, down):  1.008E-06 0.000E+00

     total cpu time spent up to now is       11.1 secs

     total energy              =     -30.16931470 Ry
     estimated scf accuracy    <       5.24281192 Ry

     iteration # 10     ecut=    50.00 Ry     beta= 0.70
     Davidson diagonalization with overlap
     ethr =  1.00E-02,  avg # of iterations =  1.0

     negative rho (up, down):  1.550E-04 0.000E+00

     total cpu time spent up to now is       11.2 secs

     total energy              =     -22.05387134 Ry
     estimated scf accuracy    <       4.12755242 Ry

     iteration # 11     ecut=    50.00 Ry     beta= 0.70
     Davidson diagonalization with overlap
     ethr =  1.00E-02,  avg # of iterations =  6.9

     negative rho (up, down):  1.321E-04 0.000E+00

     total cpu time spent up to now is       11.3 secs

     total energy              =     -22.46553285 Ry
     estimated scf accuracy    <       0.03048429 Ry

     iteration # 12     ecut=    50.00 Ry     beta= 0.70
     Davidson diagonalization with overlap
     ethr =  3.81E-04,  avg # of iterations =  8.2

     negative rho (up, down):  2.839E-04 0.000E+00

     total cpu time spent up to now is       11.5 secs

     total energy              =     -22.48569325 Ry
     estimated scf accuracy    <       0.01169327 Ry

     iteration # 13     ecut=    50.00 Ry     beta= 0.70
     Davidson diagonalization with overlap
     ethr =  1.46E-04,  avg # of iterations =  3.2

     negative rho (up, down):  2.816E-05 0.000E+00

     total cpu time spent up to now is       11.6 secs

     total energy              =     -22.49011120 Ry
     estimated scf accuracy    <       0.02485123 Ry

     iteration # 14     ecut=    50.00 Ry     beta= 0.70
     Davidson diagonalization with overlap
     ethr =  1.46E-04,  avg # of iterations =  1.0

     negative rho (up, down):  4.240E-03 0.000E+00

     total cpu time spent up to now is       11.7 secs

     total energy              =     -22.50474922 Ry
     estimated scf accuracy    <       0.03502184 Ry

     iteration # 15     ecut=    50.00 Ry     beta= 0.70
     Davidson diagonalization with overlap
     ethr =  1.46E-04,  avg # of iterations =  3.7

     negative rho (up, down):  6.243E-03 0.000E+00

     total cpu time spent up to now is       11.8 secs

     total energy              =     -22.51777014 Ry
     estimated scf accuracy    <       0.08325102 Ry

     iteration # 16     ecut=    50.00 Ry     beta= 0.70
     Davidson diagonalization with overlap
     ethr =  1.46E-04,  avg # of iterations =  1.8

     negative rho (up, down):  2.270E-02 0.000E+00

     total cpu time spent up to now is       11.9 secs

     total energy              =     -22.55954511 Ry
     estimated scf accuracy    <       0.15559409 Ry

     iteration # 17     ecut=    50.00 Ry     beta= 0.70
     Davidson diagonalization with overlap
     ethr =  1.46E-04,  avg # of iterations =  5.5

     negative rho (up, down):  1.440E-02 0.000E+00

     total cpu time spent up to now is       12.0 secs

     total energy              =     -22.51998198 Ry
     estimated scf accuracy    <       0.94356528 Ry

     iteration # 18     ecut=    50.00 Ry     beta= 0.70
     Davidson diagonalization with overlap
     ethr =  1.46E-04,  avg # of iterations =  5.1

     negative rho (up, down):  2.684E-02 0.000E+00

     total cpu time spent up to now is       12.2 secs

     total energy              =     -22.44619764 Ry
     estimated scf accuracy    <       0.28173574 Ry

     iteration # 19     ecut=    50.00 Ry     beta= 0.70
     Davidson diagonalization with overlap
     ethr =  1.46E-04,  avg # of iterations =  7.3

     negative rho (up, down):  2.258E-02 0.000E+00

     total cpu time spent up to now is       12.4 secs

     total energy              =     -22.49724806 Ry
     estimated scf accuracy    <       0.25612422 Ry

     iteration # 20     ecut=    50.00 Ry     beta= 0.70
     Davidson diagonalization with overlap
     ethr =  1.46E-04,  avg # of iterations =  1.1

     negative rho (up, down):  2.305E-02 0.000E+00

     total cpu time spent up to now is       12.4 secs

     total energy              =     -22.49707112 Ry
     estimated scf accuracy    <       0.25264596 Ry

     iteration # 21     ecut=    50.00 Ry     beta= 0.70
     Davidson diagonalization with overlap
     ethr =  1.46E-04,  avg # of iterations =  1.5

     negative rho (up, down):  4.098E-02 0.000E+00

     total cpu time spent up to now is       12.5 secs

     total energy              =     -22.49208939 Ry
     estimated scf accuracy    <       0.24960785 Ry

     iteration # 22     ecut=    50.00 Ry     beta= 0.70
     Davidson diagonalization with overlap
     ethr =  1.46E-04,  avg # of iterations =  2.0

     negative rho (up, down):  3.553E-02 0.000E+00

     total cpu time spent up to now is       12.6 secs

     total energy              =     -22.51445924 Ry
     estimated scf accuracy    <       0.15756404 Ry

     iteration # 23     ecut=    50.00 Ry     beta= 0.70
     Davidson diagonalization with overlap
     ethr =  1.46E-04,  avg # of iterations =  4.6

     negative rho (up, down):  2.142E-02 0.000E+00

     total cpu time spent up to now is       12.7 secs

     total energy              =     -22.44793996 Ry
     estimated scf accuracy    <       0.75079801 Ry

     iteration # 24     ecut=    50.00 Ry     beta= 0.70
     Davidson diagonalization with overlap
     ethr =  1.46E-04,  avg # of iterations =  5.7

     negative rho (up, down):  1.583E-02 0.000E+00

     total cpu time spent up to now is       12.9 secs

     total energy              =     -22.48006691 Ry
     estimated scf accuracy    <       0.00846973 Ry

     iteration # 25     ecut=    50.00 Ry     beta= 0.70
     Davidson diagonalization with overlap
     ethr =  1.06E-04,  avg # of iterations =  4.0

     negative rho (up, down):  1.535E-02 0.000E+00

     total cpu time spent up to now is       13.0 secs

     total energy              =     -22.47795923 Ry
     estimated scf accuracy    <       0.00619389 Ry

     iteration # 26     ecut=    50.00 Ry     beta= 0.70
     Davidson diagonalization with overlap
     ethr =  7.74E-05,  avg # of iterations =  5.1

     negative rho (up, down):  1.429E-02 0.000E+00

     total cpu time spent up to now is       13.1 secs

     total energy              =     -22.47728025 Ry
     estimated scf accuracy    <       0.00152876 Ry

     iteration # 27     ecut=    50.00 Ry     beta= 0.70
     Davidson diagonalization with overlap
     ethr =  1.91E-05,  avg # of iterations =  7.7

     negative rho (up, down):  8.544E-03 0.000E+00

     total cpu time spent up to now is       13.3 secs

     total energy              =     -22.47751034 Ry
     estimated scf accuracy    <       0.00062284 Ry

     iteration # 28     ecut=    50.00 Ry     beta= 0.70
     Davidson diagonalization with overlap
     ethr =  7.79E-06,  avg # of iterations =  5.1

     negative rho (up, down):  6.960E-03 0.000E+00

     total cpu time spent up to now is       13.4 secs

     total energy              =     -22.47739222 Ry
     estimated scf accuracy    <       0.00036835 Ry

     iteration # 29     ecut=    50.00 Ry     beta= 0.70
     Davidson diagonalization with overlap
     ethr =  4.60E-06,  avg # of iterations =  5.7

     negative rho (up, down):  6.528E-03 0.000E+00

     total cpu time spent up to now is       13.5 secs

     total energy              =     -22.47742982 Ry
     estimated scf accuracy    <       0.00024169 Ry

     iteration # 30     ecut=    50.00 Ry     beta= 0.70
     Davidson diagonalization with overlap
     ethr =  3.02E-06,  avg # of iterations =  4.6

     negative rho (up, down):  6.324E-03 0.000E+00

     total cpu time spent up to now is       13.7 secs

     total energy              =     -22.47741889 Ry
     estimated scf accuracy    <       0.00024873 Ry

     iteration # 31     ecut=    50.00 Ry     beta= 0.70
     Davidson diagonalization with overlap
     ethr =  3.02E-06,  avg # of iterations =  3.5

     negative rho (up, down):  5.849E-03 0.000E+00

     total cpu time spent up to now is       13.8 secs

     total energy              =     -22.47734885 Ry
     estimated scf accuracy    <       0.00024047 Ry

     iteration # 32     ecut=    50.00 Ry     beta= 0.70
     Davidson diagonalization with overlap
     ethr =  3.01E-06,  avg # of iterations =  5.1

     negative rho (up, down):  5.080E-03 0.000E+00

     total cpu time spent up to now is       13.9 secs

     total energy              =     -22.47725788 Ry
     estimated scf accuracy    <       0.00019434 Ry

     iteration # 33     ecut=    50.00 Ry     beta= 0.70
     Davidson diagonalization with overlap
     ethr =  2.43E-06,  avg # of iterations =  6.7

     negative rho (up, down):  9.978E-06 0.000E+00

     total cpu time spent up to now is       14.0 secs

     total energy              =     -22.47691332 Ry
     estimated scf accuracy    <       0.00014494 Ry

     iteration # 34     ecut=    50.00 Ry     beta= 0.70
     Davidson diagonalization with overlap
     c_bands:  1 eigenvalues not converged
     ethr =  1.81E-06,  avg # of iterations =  9.9

     negative rho (up, down):  7.572E-05 0.000E+00

     total cpu time spent up to now is       14.3 secs

     total energy              =     -22.47692028 Ry
     estimated scf accuracy    <       0.00001345 Ry

     iteration # 35     ecut=    50.00 Ry     beta= 0.70
     Davidson diagonalization with overlap
     ethr =  1.68E-07,  avg # of iterations =  4.7

     total cpu time spent up to now is       14.4 secs

     total energy              =     -22.47692005 Ry
     estimated scf accuracy    <       0.00000007 Ry

     iteration # 36     ecut=    50.00 Ry     beta= 0.70
     Davidson diagonalization with overlap
     ethr =  8.38E-10,  avg # of iterations =  5.0

     total cpu time spent up to now is       14.5 secs

     total energy              =     -22.47692007 Ry
     estimated scf accuracy    <          7.7E-10 Ry

     iteration # 37     ecut=    50.00 Ry     beta= 0.70
     Davidson diagonalization with overlap
     ethr =  9.56E-12,  avg # of iterations =  3.1

     total cpu time spent up to now is       14.6 secs

     End of self-consistent calculation

          k = 0.0000 0.0000 0.0000 (  2311 PWs)   bands (ev):

   -25.9793 -13.6843  -5.3726  -5.3726  -1.0639  -0.2462   0.4952   0.8628

          k =-0.0000 0.0626 0.0000 (  2315 PWs)   bands (ev):

   -25.8460 -13.5098  -5.9034  -5.7228  -0.8770  -0.0546   0.6868   1.0547

          k =-0.0000 0.1251 0.0000 (  2307 PWs)   bands (ev):

   -25.4468 -12.9904  -7.3110  -6.5750  -0.3148   0.5198   1.2620   1.6298

          k =-0.0000 0.1877 0.0000 (  2283 PWs)   bands (ev):

   -24.7837 -12.1296  -9.2476  -7.6118   0.6238   1.4759   2.2214   2.5871

          k =-0.0000 0.2503 0.0000 (  2268 PWs)   bands (ev):

   -23.8602 -11.4256 -10.9497  -8.6016   1.9371   2.8064   3.5647   3.9190

          k =-0.0000 0.3128 0.0000 (  2278 PWs)   bands (ev):

   -22.7085 -13.6535  -9.4803  -9.4197   3.6190   3.8110   4.6583   5.2905

          k =-0.0000 0.3754 0.0000 (  2246 PWs)   bands (ev):

   -21.3135 -15.7996  -9.9774  -7.8223   1.2599   5.6663   6.6639   7.3970

          k =-0.0000 0.4380 0.0000 (  2278 PWs)   bands (ev):

   -19.7301 -17.7932 -10.2803  -6.3740  -0.7146   8.0538   9.1249   9.2300

          k = 0.0542 0.0939 0.0000 (  2311 PWs)   bands (ev):

   -25.5800 -13.1628  -6.7893  -6.4049  -0.5021   0.3285   1.0703   1.4381

          k = 0.0542 0.1564 0.0000 (  2295 PWs)   bands (ev):

   -25.0487 -12.4721  -8.3311  -7.4667   0.2493   1.0939   1.8379   2.2046

          k = 0.0542 0.2190 0.0000 (  2272 PWs)   bands (ev):

   -24.2557 -11.4509 -10.3249  -8.5308   1.3763   2.2388   2.9895   3.3513

          k = 0.0542 0.2816 0.0000 (  2273 PWs)   bands (ev):

   -23.2201 -12.5036 -10.1204  -9.4515   2.8747   3.7368   4.5244   4.8151

          k = 0.0542 0.3441 0.0000 (  2269 PWs)   bands (ev):

   -21.9472 -14.6799 -10.1426  -8.5392   2.5217   4.7408   5.7105   6.4418

          k = 0.0542 0.4067 0.0000 (  2281 PWs)   bands (ev):

   -20.4504 -16.7555 -10.5760  -6.8926   0.1397   6.9658   7.9766   8.7365

          k = 0.0542 0.4693 0.0000 (  2288 PWs)   bands (ev):

   -19.0004 -18.4032 -10.7216  -5.9782  -1.0361   9.4536   9.5162   9.9080

          k = 0.1084 0.1877 0.0000 (  2291 PWs)   bands (ev):

   -24.3880 -11.6216  -9.6077  -8.8779   1.1903   2.0489   2.7980   3.1611

          k = 0.1084 0.2503 0.0000 (  2268 PWs)   bands (ev):

   -23.4831 -11.3682 -10.4452 -10.0784   2.5038   3.3802   4.1417   4.4947

          k = 0.1084 0.3128 0.0000 (  2266 PWs)   bands (ev):

   -22.3245 -13.4415 -10.9189  -8.9848   3.6737   4.1878   5.1207   5.8687

          k = 0.1084 0.3754 0.0000 (  2274 PWs)   bands (ev):

   -20.9386 -15.5233 -11.4780  -7.3296   1.2071   6.2342   7.1818   7.9776

          k = 0.1084 0.4380 0.0000 (  2300 PWs)   bands (ev):

   -19.3653 -17.4800 -11.7685  -5.8552  -0.7100   8.6280   9.5628  10.4635

          k = 0.1626 0.2816 0.0000 (  2262 PWs)   bands (ev):

   -22.4550 -12.4236 -11.8038  -9.1342   4.0030   4.8937   5.6775   6.0146

          k = 0.1626 0.3441 0.0000 (  2271 PWs)   bands (ev):

   -21.1877 -14.1860 -12.7206  -7.5726   2.0285   5.8662   6.7530   7.5956

          k = 0.1626 0.4067 0.0000 (  2291 PWs)   bands (ev):

   -19.7117 -16.1425 -13.1483  -5.9082  -0.0630   8.0783   8.8088   9.8935

          k = 0.1626 0.4693 0.0000 (  2306 PWs)   bands (ev):

   -18.2352 -17.7949 -13.2916  -4.9145  -1.2106   9.8417  10.5363  10.6766

          k = 0.2167 0.3754 0.0000 (  2284 PWs)   bands (ev):

   -19.8290 -14.8003 -14.5227  -5.9482   0.2763   7.8939   8.4755   9.7021

          k = 0.2167 0.4380 0.0000 (  2281 PWs)   bands (ev):

   -18.2717 -16.5141 -14.9132  -4.3579  -1.3712   8.8843  10.2346  11.7083

          k = 0.2709 0.4693 0.0000 (  2268 PWs)   bands (ev):

   -16.7841 -16.5669 -16.5669  -2.8097  -2.8097   8.4858  12.4861  12.4862

     the Fermi energy is    -2.8097 ev

!    total energy              =     -22.47692007 Ry
     estimated scf accuracy    <          6.0E-11 Ry
     smearing contrib. (-TS)   =      -0.00005015 Ry
     internal energy E=F+TS    =     -22.47686992 Ry

     The total energy is F=E-TS. E is the sum of the following terms:
     one-electron contribution =    -511.26242540 Ry
     hartree contribution      =     256.60924847 Ry
     xc contribution           =      -7.65371208 Ry
     ewald contribution        =     239.83001909 Ry

     convergence has been achieved in  37 iterations

     Forces acting on atoms (cartesian axes, Ry/au):

     atom    1 type  1   force =    -0.00000000   -0.00000000    0.00000000
     atom    2 type  1   force =     0.00000000    0.00000000    0.00000000

     Total force =     0.000000     Total SCF correction =     0.000000


     Computing stress (Cartesian axis) and pressure

          total   stress  (Ry/bohr**3)                   (kbar)     P=      245.64
   0.00265459   0.00000000   0.00000000          390.50        0.00        0.00
   0.00000000   0.00265459   0.00000000            0.00      390.50        0.00
   0.00000000   0.00000000  -0.00029971            0.00        0.00      -44.09

     Energy error            =      4.2E-01
     Gradient error          =      1.4E-26
     Cell gradient error     =      2.7E-03


     number of scf cycles    =   3
     number of bfgs steps    =   2

     enthalpy old            =     -22.0602686666 Ry
     enthalpy new            =     -22.4769200742 Ry

     CASE: enthalpy_new < enthalpy_old

     new trust radius        =       0.2918863179 bohr
     new conv_thr            =            1.0E-10 Ry

     new unit-cell volume =    650.50645 a.u.^3 (    96.39511 Ang^3 )
     density =      0.41380 g/cm^3

CELL_PARAMETERS (alat=  3.30000000)
   1.305025619   0.000000000   0.000000000
  -0.652512809   1.130185339   0.000000000
   0.000000000   0.000000000  12.272727273

ATOMIC_POSITIONS (crystal)
C             0.3333333333        0.6666666667        0.5000000000
C             0.6666666667        0.3333333333        0.5000000000



     Writing output data file ./work/LiC330.save/
     NEW-OLD atomic charge density approx. for the potential

     negative rho (up, down):  5.603E-04 0.000E+00
     extrapolated charge    8.88780, renormalised to    8.00000

     total cpu time spent up to now is       14.7 secs

     Self-consistent Calculation

     iteration #  1     ecut=    50.00 Ry     beta= 0.70
     Davidson diagonalization with overlap
     c_bands:  2 eigenvalues not converged
     c_bands:  2 eigenvalues not converged
     c_bands:  3 eigenvalues not converged
     c_bands:  2 eigenvalues not converged
     c_bands:  4 eigenvalues not converged
     c_bands:  5 eigenvalues not converged
     c_bands:  5 eigenvalues not converged
     c_bands:  3 eigenvalues not converged
     c_bands:  3 eigenvalues not converged
     c_bands:  3 eigenvalues not converged
     c_bands:  3 eigenvalues not converged
     c_bands:  5 eigenvalues not converged
     c_bands:  1 eigenvalues not converged
     c_bands:  5 eigenvalues not converged
     c_bands:  3 eigenvalues not converged
     c_bands:  5 eigenvalues not converged
     c_bands:  4 eigenvalues not converged
     c_bands:  5 eigenvalues not converged
     c_bands:  1 eigenvalues not converged
     c_bands:  5 eigenvalues not converged
     c_bands:  5 eigenvalues not converged
     c_bands:  5 eigenvalues not converged
     c_bands:  1 eigenvalues not converged
     c_bands:  1 eigenvalues not converged
     c_bands:  5 eigenvalues not converged
     ethr =  1.00E-06,  avg # of iterations = 24.2

     negative rho (up, down):  7.159E-05 0.000E+00

     total cpu time spent up to now is       15.4 secs

     total energy              =     754.76738442 Ry
     estimated scf accuracy    <     424.66029221 Ry

     iteration #  2     ecut=    50.00 Ry     beta= 0.70
     Davidson diagonalization with overlap
     c_bands:  2 eigenvalues not converged
     c_bands:  3 eigenvalues not converged
     c_bands:  3 eigenvalues not converged
     c_bands:  2 eigenvalues not converged
     c_bands:  1 eigenvalues not converged
     c_bands:  3 eigenvalues not converged
     c_bands:  3 eigenvalues not converged
     c_bands:  4 eigenvalues not converged
     c_bands:  4 eigenvalues not converged
     c_bands:  3 eigenvalues not converged
     c_bands:  5 eigenvalues not converged
     c_bands:  1 eigenvalues not converged
     c_bands:  5 eigenvalues not converged
     c_bands:  5 eigenvalues not converged
     c_bands:  2 eigenvalues not converged
     ethr =  1.00E-02,  avg # of iterations = 40.7

     negative rho (up, down):  3.622E-05 0.000E+00

     total cpu time spent up to now is       16.6 secs

     total energy              =    -165.48138293 Ry
     estimated scf accuracy    <     215.69418439 Ry

     iteration #  3     ecut=    50.00 Ry     beta= 0.70
     Davidson diagonalization with overlap
     ethr =  1.00E-02,  avg # of iterations =  4.7

     negative rho (up, down):  9.387E-06 0.000E+00

     total cpu time spent up to now is       16.7 secs

     total energy              =     -59.53542140 Ry
     estimated scf accuracy    <      74.54446672 Ry

     iteration #  4     ecut=    50.00 Ry     beta= 0.70
     Davidson diagonalization with overlap
     ethr =  1.00E-02,  avg # of iterations =  3.6

     negative rho (up, down):  1.162E-05 0.000E+00

     total cpu time spent up to now is       16.9 secs

     total energy              =     -56.99525819 Ry
     estimated scf accuracy    <      19.60454050 Ry

     iteration #  5     ecut=    50.00 Ry     beta= 0.70
     Davidson diagonalization with overlap
     ethr =  1.00E-02,  avg # of iterations =  1.3

     negative rho (up, down):  2.527E-07 0.000E+00

     total cpu time spent up to now is       16.9 secs

     total energy              =     -24.61689864 Ry
     estimated scf accuracy    <      18.16010979 Ry

     iteration #  6     ecut=    50.00 Ry     beta= 0.70
     Davidson diagonalization with overlap
     ethr =  1.00E-02,  avg # of iterations =  4.0

     negative rho (up, down):  1.332E-06 0.000E+00

     total cpu time spent up to now is       17.1 secs

     total energy              =     -29.97034367 Ry
     estimated scf accuracy    <       1.39582891 Ry

     iteration #  7     ecut=    50.00 Ry     beta= 0.70
     Davidson diagonalization with overlap
     ethr =  1.00E-02,  avg # of iterations =  1.0

     negative rho (up, down):  1.361E-06 0.000E+00

     total cpu time spent up to now is       17.1 secs

     total energy              =     -30.04412491 Ry
     estimated scf accuracy    <       3.94038013 Ry

     iteration #  8     ecut=    50.00 Ry     beta= 0.70
     Davidson diagonalization with overlap
     ethr =  1.00E-02,  avg # of iterations =  1.0

     negative rho (up, down):  4.718E-07 0.000E+00

     total cpu time spent up to now is       17.2 secs

     total energy              =     -27.09486377 Ry
     estimated scf accuracy    <       3.97587427 Ry

     iteration #  9     ecut=    50.00 Ry     beta= 0.70
     Davidson diagonalization with overlap
     ethr =  1.00E-02,  avg # of iterations =  1.2

     negative rho (up, down):  7.051E-07 0.000E+00

     total cpu time spent up to now is       17.3 secs

     total energy              =     -27.66867829 Ry
     estimated scf accuracy    <       2.46566741 Ry

     iteration # 10     ecut=    50.00 Ry     beta= 0.70
     Davidson diagonalization with overlap
     ethr =  1.00E-02,  avg # of iterations =  1.1

     negative rho (up, down):  4.503E-04 0.000E+00

     total cpu time spent up to now is       17.4 secs

     total energy              =     -22.29492237 Ry
     estimated scf accuracy    <       2.76499195 Ry

     iteration # 11     ecut=    50.00 Ry     beta= 0.70
     Davidson diagonalization with overlap
     ethr =  1.00E-02,  avg # of iterations =  7.1

     negative rho (up, down):  8.239E-04 0.000E+00

     total cpu time spent up to now is       17.6 secs

     total energy              =     -22.64693946 Ry
     estimated scf accuracy    <       0.22325756 Ry

     iteration # 12     ecut=    50.00 Ry     beta= 0.70
     Davidson diagonalization with overlap
     ethr =  2.79E-03,  avg # of iterations =  4.8

     negative rho (up, down):  1.557E-02 0.000E+00

     total cpu time spent up to now is       17.7 secs

     total energy              =     -22.76310364 Ry
     estimated scf accuracy    <       0.28149319 Ry

     iteration # 13     ecut=    50.00 Ry     beta= 0.70
     Davidson diagonalization with overlap
     ethr =  2.79E-03,  avg # of iterations =  2.5

     negative rho (up, down):  3.044E-01 0.000E+00

     total cpu time spent up to now is       17.8 secs

     total energy              =     -24.06044909 Ry
     estimated scf accuracy    <       1.84656195 Ry

     iteration # 14     ecut=    50.00 Ry     beta= 0.70
     Davidson diagonalization with overlap
     ethr =  2.79E-03,  avg # of iterations =  5.5

     negative rho (up, down):  3.296E-02 0.000E+00

     total cpu time spent up to now is       17.9 secs

     total energy              =     -15.38485805 Ry
     estimated scf accuracy    <      51.01096834 Ry

     iteration # 15     ecut=    50.00 Ry     beta= 0.70
     Davidson diagonalization with overlap
     ethr =  2.79E-03,  avg # of iterations =  8.1

     negative rho (up, down):  2.436E-02 0.000E+00

     total cpu time spent up to now is       18.1 secs

     total energy              =     -22.58069009 Ry
     estimated scf accuracy    <       0.29517876 Ry

     iteration # 16     ecut=    50.00 Ry     beta= 0.70
     Davidson diagonalization with overlap
     ethr =  2.79E-03,  avg # of iterations =  1.9

     negative rho (up, down):  3.487E-02 0.000E+00

     total cpu time spent up to now is       18.2 secs

     total energy              =     -22.57452199 Ry
     estimated scf accuracy    <       0.40398143 Ry

     iteration # 17     ecut=    50.00 Ry     beta= 0.70
     Davidson diagonalization with overlap
     ethr =  2.79E-03,  avg # of iterations =  1.6

     negative rho (up, down):  2.310E-01 0.000E+00

     total cpu time spent up to now is       18.3 secs

     total energy              =     -22.82545000 Ry
     estimated scf accuracy    <       0.25274110 Ry

     iteration # 18     ecut=    50.00 Ry     beta= 0.70
     Davidson diagonalization with overlap
     ethr =  2.79E-03,  avg # of iterations =  5.4

     negative rho (up, down):  1.837E-01 0.000E+00

     total cpu time spent up to now is       18.4 secs

     total energy              =     -26.46523205 Ry
     estimated scf accuracy    <       0.29732785 Ry

     iteration # 19     ecut=    50.00 Ry     beta= 0.70
     Davidson diagonalization with overlap
     c_bands:  2 eigenvalues not converged
     c_bands:  1 eigenvalues not converged
     ethr =  2.79E-03,  avg # of iterations = 11.9

     negative rho (up, down):  1.065E-01 0.000E+00

     total cpu time spent up to now is       18.6 secs

     total energy              =     -26.99401030 Ry
     estimated scf accuracy    <       2.25148150 Ry

     iteration # 20     ecut=    50.00 Ry     beta= 0.70
     Davidson diagonalization with overlap
     ethr =  2.79E-03,  avg # of iterations =  1.1

     negative rho (up, down):  2.128E-01 0.000E+00

     total cpu time spent up to now is       18.7 secs

     total energy              =     -32.25620996 Ry
     estimated scf accuracy    <       2.39744839 Ry

     iteration # 21     ecut=    50.00 Ry     beta= 0.70
     Davidson diagonalization with overlap
     ethr =  2.79E-03,  avg # of iterations =  5.2

     negative rho (up, down):  1.370E-01 0.000E+00

     total cpu time spent up to now is       18.8 secs

     total energy              =     -27.30183903 Ry
     estimated scf accuracy    <       5.16595452 Ry

     iteration # 22     ecut=    50.00 Ry     beta= 0.70
     Davidson diagonalization with overlap
     ethr =  2.79E-03,  avg # of iterations =  2.0

     negative rho (up, down):  3.676E-02 0.000E+00

     total cpu time spent up to now is       18.9 secs

     total energy              =     -22.42278779 Ry
     estimated scf accuracy    <       2.57600241 Ry

     iteration # 23     ecut=    50.00 Ry     beta= 0.70
     Davidson diagonalization with overlap
     ethr =  2.79E-03,  avg # of iterations =  6.0

     negative rho (up, down):  3.403E-02 0.000E+00

     total cpu time spent up to now is       19.1 secs

     total energy              =     -22.61249443 Ry
     estimated scf accuracy    <       0.02347250 Ry

     iteration # 24     ecut=    50.00 Ry     beta= 0.70
     Davidson diagonalization with overlap
     ethr =  2.93E-04,  avg # of iterations =  9.8

     negative rho (up, down):  9.225E-02 0.000E+00

     total cpu time spent up to now is       19.3 secs

     total energy              =     -22.60500227 Ry
     estimated scf accuracy    <       0.03677617 Ry

     iteration # 25     ecut=    50.00 Ry     beta= 0.70
     Davidson diagonalization with overlap
     ethr =  2.93E-04,  avg # of iterations =  3.3

     negative rho (up, down):  2.923E-02 0.000E+00

     total cpu time spent up to now is       19.4 secs

     total energy              =     -22.59534689 Ry
     estimated scf accuracy    <       0.06897687 Ry

     iteration # 26     ecut=    50.00 Ry     beta= 0.70
     Davidson diagonalization with overlap
     ethr =  2.93E-04,  avg # of iterations =  6.3

     negative rho (up, down):  2.332E-02 0.000E+00

     total cpu time spent up to now is       19.5 secs

     total energy              =     -22.59530274 Ry
     estimated scf accuracy    <       0.05932122 Ry

     iteration # 27     ecut=    50.00 Ry     beta= 0.70
     Davidson diagonalization with overlap
     ethr =  2.93E-04,  avg # of iterations =  6.6

     negative rho (up, down):  4.704E-03 0.000E+00

     total cpu time spent up to now is       19.7 secs

     total energy              =     -22.60555406 Ry
     estimated scf accuracy    <       0.01351599 Ry

     iteration # 28     ecut=    50.00 Ry     beta= 0.70
     Davidson diagonalization with overlap
     ethr =  1.69E-04,  avg # of iterations =  6.0

     negative rho (up, down):  1.359E-03 0.000E+00

     total cpu time spent up to now is       19.8 secs

     total energy              =     -22.60055727 Ry
     estimated scf accuracy    <       0.01562352 Ry

     iteration # 29     ecut=    50.00 Ry     beta= 0.70
     Davidson diagonalization with overlap
     ethr =  1.69E-04,  avg # of iterations =  2.9

     negative rho (up, down):  3.614E-03 0.000E+00

     total cpu time spent up to now is       19.9 secs

     total energy              =     -22.59858281 Ry
     estimated scf accuracy    <       0.00472754 Ry

     iteration # 30     ecut=    50.00 Ry     beta= 0.70
     Davidson diagonalization with overlap
     ethr =  5.91E-05,  avg # of iterations =  3.7

     negative rho (up, down):  7.723E-04 0.000E+00

     total cpu time spent up to now is       20.0 secs

     total energy              =     -22.59891609 Ry
     estimated scf accuracy    <       0.00020402 Ry

     iteration # 31     ecut=    50.00 Ry     beta= 0.70
     Davidson diagonalization with overlap
     c_bands:  1 eigenvalues not converged
     c_bands:  1 eigenvalues not converged
     c_bands:  1 eigenvalues not converged
     ethr =  2.55E-06,  avg # of iterations = 10.3

     negative rho (up, down):  1.319E-05 0.000E+00

     total cpu time spent up to now is       20.3 secs

     total energy              =     -22.59893430 Ry
     estimated scf accuracy    <       0.00001175 Ry

     iteration # 32     ecut=    50.00 Ry     beta= 0.70
     Davidson diagonalization with overlap
     ethr =  1.47E-07,  avg # of iterations =  7.0

     negative rho (up, down):  5.331E-05 0.000E+00

     total cpu time spent up to now is       20.4 secs

     total energy              =     -22.59893723 Ry
     estimated scf accuracy    <       0.00000021 Ry

     iteration # 33     ecut=    50.00 Ry     beta= 0.70
     Davidson diagonalization with overlap
     ethr =  2.63E-09,  avg # of iterations =  4.3

     total cpu time spent up to now is       20.5 secs

     total energy              =     -22.59893694 Ry
     estimated scf accuracy    <       0.00000004 Ry

     iteration # 34     ecut=    50.00 Ry     beta= 0.70
     Davidson diagonalization with overlap
     ethr =  4.61E-10,  avg # of iterations =  3.0

     total cpu time spent up to now is       20.6 secs

     total energy              =     -22.59893695 Ry
     estimated scf accuracy    <          6.6E-10 Ry

     iteration # 35     ecut=    50.00 Ry     beta= 0.70
     Davidson diagonalization with overlap
     ethr =  8.24E-12,  avg # of iterations =  3.3

     total cpu time spent up to now is       20.7 secs

     End of self-consistent calculation

          k = 0.0000 0.0000 0.0000 (  2311 PWs)   bands (ev):

   -25.1306 -12.8829  -6.2194  -6.2194  -1.0452  -0.2466   0.4974   0.8669

          k =-0.0000 0.0590 0.0000 (  2315 PWs)   bands (ev):

   -25.0078 -12.7305  -6.7110  -6.5133  -0.8785  -0.0766   0.6678   1.0371

          k =-0.0000 0.1180 0.0000 (  2307 PWs)   bands (ev):

   -24.6397 -12.2769  -8.0107  -7.2330  -0.3774   0.4329   1.1793   1.5473

          k =-0.0000 0.1770 0.0000 (  2283 PWs)   bands (ev):

   -24.0281 -11.5257  -9.7923  -8.1162   0.4580   1.2806   2.0320   2.3962

          k =-0.0000 0.2359 0.0000 (  2268 PWs)   bands (ev):

   -23.1762 -11.7932 -10.4998  -8.9655   1.6266   2.4560   3.2255   3.5687

          k =-0.0000 0.2949 0.0000 (  2278 PWs)   bands (ev):

   -22.1227 -13.8414  -9.6722  -9.2267   2.4150   3.1206   4.0396   4.7574

          k =-0.0000 0.3539 0.0000 (  2246 PWs)   bands (ev):

   -20.8390 -15.8146 -10.1515  -7.8019   0.1954   4.9332   5.8734   6.4342

          k =-0.0000 0.4129 0.0000 (  2278 PWs)   bands (ev):

   -19.3712 -17.6657 -10.4173  -6.5837  -1.4600   6.3432   7.1225   8.0487

          k = 0.0511 0.0885 0.0000 (  2311 PWs)   bands (ev):

   -24.7627 -12.4277  -7.5378  -7.0884  -0.5444   0.2632   1.0088   1.3773

          k = 0.0511 0.1475 0.0000 (  2295 PWs)   bands (ev):

   -24.2725 -11.8243  -8.9621  -7.9983   0.1245   0.9420   1.6911   2.0571

          k = 0.0511 0.2065 0.0000 (  2272 PWs)   bands (ev):

   -23.5412 -10.9352 -10.7886  -8.9242   1.1272   1.9565   2.7145   3.0730

          k = 0.0511 0.2654 0.0000 (  2273 PWs)   bands (ev):

   -22.5914 -12.7862  -9.7801  -9.7299   2.4594   3.2035   3.6692   4.0780

          k = 0.0511 0.3244 0.0000 (  2269 PWs)   bands (ev):

   -21.4241 -14.7845 -10.3337  -8.4152   1.2469   4.1165   5.0245   5.7788

          k = 0.0511 0.3834 0.0000 (  2281 PWs)   bands (ev):

   -20.0469 -16.6960 -10.7147  -7.0115  -0.7638   6.0787   6.9577   7.0317

          k = 0.0511 0.4424 0.0000 (  2288 PWs)   bands (ev):

   -18.6059 -18.3195 -10.8426  -6.2519  -1.7397   6.8882   8.3286   8.4714

          k = 0.1022 0.1770 0.0000 (  2291 PWs)   bands (ev):

   -23.6634 -11.0841 -10.1820  -9.2076   0.9613   1.7886   2.5443   2.9053

          k = 0.1022 0.2359 0.0000 (  2268 PWs)   bands (ev):

   -22.8347 -11.7813 -10.2947 -10.0612   2.1287   2.9661   3.7382   4.0749

          k = 0.1022 0.2949 0.0000 (  2266 PWs)   bands (ev):

   -21.7692 -13.6561 -11.0747  -8.7971   2.1729   3.6256   4.4959   5.2723

          k = 0.1022 0.3539 0.0000 (  2274 PWs)   bands (ev):

   -20.4963 -15.5576 -11.5847  -7.3742   0.0852   5.4426   6.3226   7.1438

          k = 0.1022 0.4129 0.0000 (  2300 PWs)   bands (ev):

   -19.0455 -17.3626 -11.8505  -6.1308  -1.5186   7.5576   8.3448   8.3927

          k = 0.1533 0.2654 0.0000 (  2262 PWs)   bands (ev):

   -21.8902 -12.8497 -11.7743  -8.9248   3.4608   4.3061   5.1025   5.4313

          k = 0.1533 0.3244 0.0000 (  2271 PWs)   bands (ev):

   -20.7250 -14.3776 -12.7046  -7.5784   0.7158   5.1157   5.9410   6.8060

          k = 0.1533 0.3834 0.0000 (  2291 PWs)   bands (ev):

   -19.3728 -16.1260 -13.1433  -6.1551  -1.0520   7.0768   7.7072   8.8452

          k = 0.1533 0.4424 0.0000 (  2306 PWs)   bands (ev):

   -18.0110 -17.6415 -13.2866  -5.3225  -2.0083   8.5342   9.2246   9.3889

          k = 0.2043 0.3539 0.0000 (  2284 PWs)   bands (ev):

   -19.4808 -15.1211 -14.1874  -6.1818  -0.8110   6.9133   7.4156   8.6538

          k = 0.2043 0.4129 0.0000 (  2281 PWs)   bands (ev):

   -18.0670 -16.4773 -14.7497  -4.8249  -2.2229   7.7773   8.9770  10.4015

          k = 0.2554 0.4424 0.0000 (  2268 PWs)   bands (ev):

   -16.8121 -16.8121 -15.8653  -3.4878  -3.4878   7.4708  10.8796  10.8796

     the Fermi energy is    -3.4878 ev

!    total energy              =     -22.59893695 Ry
     estimated scf accuracy    <          3.7E-11 Ry
     smearing contrib. (-TS)   =      -0.00005015 Ry
     internal energy E=F+TS    =     -22.59888680 Ry

     The total energy is F=E-TS. E is the sum of the following terms:
     one-electron contribution =    -453.52494737 Ry
     hartree contribution      =     227.56320135 Ry
     xc contribution           =      -7.35842077 Ry
     ewald contribution        =     210.72128000 Ry

     convergence has been achieved in  35 iterations

     Forces acting on atoms (cartesian axes, Ry/au):

     atom    1 type  1   force =     0.00000000    0.00000000    0.00000000
     atom    2 type  1   force =    -0.00000000   -0.00000000    0.00000000

     Total force =     0.000000     Total SCF correction =     0.000000


     Computing stress (Cartesian axis) and pressure

          total   stress  (Ry/bohr**3)                   (kbar)     P=       71.97
   0.00087342  -0.00000000  -0.00000000          128.49       -0.00       -0.00
  -0.00000000   0.00087342   0.00000000           -0.00      128.49        0.00
  -0.00000000   0.00000000  -0.00027915           -0.00        0.00      -41.06

     Energy error            =      1.2E-01
     Gradient error          =      1.3E-26
     Cell gradient error     =      8.7E-04


     number of scf cycles    =   4
     number of bfgs steps    =   3

     enthalpy old            =     -22.4769200742 Ry
     enthalpy new            =     -22.5989369511 Ry

     CASE: enthalpy_new < enthalpy_old

     new trust radius        =       0.1564759018 bohr
     new conv_thr            =            1.0E-10 Ry

     new unit-cell volume =    691.02779 a.u.^3 (   102.39975 Ang^3 )
     density =      0.38954 g/cm^3

CELL_PARAMETERS (alat=  3.30000000)
   1.345057934   0.000000000   0.000000000
  -0.672528967   1.164854340   0.000000000
   0.000000000   0.000000000  12.272727273

ATOMIC_POSITIONS (crystal)
C             0.3333333333        0.6666666667        0.5000000000
C             0.6666666667        0.3333333333        0.5000000000



     Writing output data file ./work/LiC330.save/
     NEW-OLD atomic charge density approx. for the potential

     negative rho (up, down):  3.789E-04 0.000E+00
     extrapolated charge    8.46830, renormalised to    8.00000

     total cpu time spent up to now is       20.8 secs

     Self-consistent Calculation

     iteration #  1     ecut=    50.00 Ry     beta= 0.70
     Davidson diagonalization with overlap
     c_bands:  2 eigenvalues not converged
     c_bands:  4 eigenvalues not converged
     c_bands:  3 eigenvalues not converged
     c_bands:  3 eigenvalues not converged
     c_bands:  1 eigenvalues not converged
     c_bands:  2 eigenvalues not converged
     c_bands:  1 eigenvalues not converged
     c_bands:  3 eigenvalues not converged
     c_bands:  4 eigenvalues not converged
     c_bands:  4 eigenvalues not converged
     c_bands:  2 eigenvalues not converged
     c_bands:  2 eigenvalues not converged
     c_bands:  3 eigenvalues not converged
     c_bands:  3 eigenvalues not converged
     c_bands:  4 eigenvalues not converged
     c_bands:  4 eigenvalues not converged
     c_bands:  5 eigenvalues not converged
     c_bands:  5 eigenvalues not converged
     c_bands:  5 eigenvalues not converged
     c_bands:  4 eigenvalues not converged
     c_bands:  5 eigenvalues not converged
     ethr =  1.00E-06,  avg # of iterations = 19.9

[...]

   -20.1918 -15.5151 -11.5699  -7.3927  -0.6300   4.9452   5.7753   6.5634

          k = 0.0980 0.3961 0.0000 (  2300 PWs)   bands (ev):

   -18.8879 -17.1535 -11.8209  -6.2929  -2.0386   6.4878   6.9136   7.6424

          k = 0.1470 0.2547 0.0000 (  2262 PWs)   bands (ev):

   -21.4863 -13.0707 -11.6792  -8.7826   1.5496   3.1224   3.9329   4.7416

          k = 0.1470 0.3113 0.0000 (  2271 PWs)   bands (ev):

   -20.4001 -14.4746 -12.5775  -7.5728  -0.1111   4.6449   5.4244   6.3085

          k = 0.1470 0.3678 0.0000 (  2291 PWs)   bands (ev):

   -19.1571 -16.0591 -13.0233  -6.3011  -1.6766   6.4457   7.0081   8.1773

          k = 0.1470 0.4244 0.0000 (  2306 PWs)   bands (ev):

   -18.0688 -17.2844 -13.1687  -5.5676  -2.5157   7.7222   8.3654   8.3943

          k = 0.1960 0.3396 0.0000 (  2284 PWs)   bands (ev):

   -19.2495 -15.2660 -13.8681  -6.3201  -1.4909   6.2957   6.7460   8.0259

          k = 0.1960 0.3961 0.0000 (  2281 PWs)   bands (ev):

   -17.9784 -16.4330 -14.4486  -5.1092  -2.7542   7.0860   8.1799   9.5724

          k = 0.2451 0.4244 0.0000 (  2268 PWs)   bands (ev):

   -16.8973 -16.8973 -15.2443  -3.9056  -3.9056   6.8348   9.8226   9.8226

     the Fermi energy is    -3.9056 ev

!    total energy              =     -22.62187666 Ry
     estimated scf accuracy    <          2.9E-11 Ry
     smearing contrib. (-TS)   =      -0.00005015 Ry
     internal energy E=F+TS    =     -22.62182651 Ry

     The total energy is F=E-TS. E is the sum of the following terms:
     one-electron contribution =    -416.89188432 Ry
     hartree contribution      =     209.14149142 Ry
     xc contribution           =      -7.16172946 Ry
     ewald contribution        =     192.29029585 Ry

     convergence has been achieved in   7 iterations

     Forces acting on atoms (cartesian axes, Ry/au):

     atom    1 type  1   force =    -0.00000000   -0.00000000    0.00000000
     atom    2 type  1   force =     0.00000000    0.00000000    0.00000000

     Total force =     0.000000     Total SCF correction =     0.000000


     Computing stress (Cartesian axis) and pressure

          total   stress  (Ry/bohr**3)                   (kbar)     P=      -12.93
   0.00000001  -0.00000000   0.00000000            0.00       -0.00        0.00
  -0.00000000   0.00000001   0.00000000           -0.00        0.00        0.00
  -0.00000000   0.00000000  -0.00026372           -0.00        0.00      -38.80

     Energy error            =      3.9E-08
     Gradient error          =      1.3E-26
     Cell gradient error     =      5.5E-09


     bfgs converged in   8 scf cycles and   7 bfgs steps
     (criteria: energy <  1.0E-04 Ry, force <  1.0E-08Ry/Bohr, cell <  1.0E-03kbar)

     End of BFGS Geometry Optimization

     Final enthalpy =     -22.6218766602 Ry

     File ./work/LiC330.bfgs deleted, as requested
Begin final coordinates
     new unit-cell volume =    706.73396 a.u.^3 (   104.72717 Ang^3 )
     density =      0.38088 g/cm^3

CELL_PARAMETERS (alat=  3.30000000)
   1.360257765   0.000000000   0.000000000
  -0.680128882   1.178017780   0.000000000
   0.000000000   0.000000000  12.272727273

ATOMIC_POSITIONS (crystal)
C             0.3333333333        0.6666666667        0.5000000000
C             0.6666666667        0.3333333333        0.5000000000
End final coordinates



     Writing output data file ./work/LiC330.save/

     Final scf calculation at the relaxed structure.
     The G-vectors are recalculated for the final unit cell
     Results may differ from those at the preceding step.
 
     Parallelization info
     --------------------
     sticks:   dense  smooth     PW     G-vecs:    dense   smooth      PW
     Min           8       8      2                 1038     1038     166
     Max           9       9      3                 1071     1071     209
     Sum         283     283     85                33741    33741    6115
 


     bravais-lattice index     =            4
     lattice parameter (alat)  =       3.3000  a.u.
     unit-cell volume          =     706.7340 (a.u.)^3
     number of atoms/cell      =            2
     number of atomic types    =            1
     number of electrons       =         8.00
     number of Kohn-Sham states=            8
     kinetic-energy cutoff     =      50.0000  Ry
     charge density cutoff     =     200.0000  Ry
     scf convergence threshold =      1.0E-10
     mixing beta               =       0.7000
     number of iterations used =            8  plain     mixing
     press convergence thresh. =      1.0E-03
     Exchange-correlation= PBE
                           (   1   4   3   4   0   0   0)

     celldm(1)=   3.300000  celldm(2)=   0.000000  celldm(3)=  12.272727
     celldm(4)=   0.000000  celldm(5)=   0.000000  celldm(6)=   0.000000

     crystal axes: (cart. coord. in units of alat)
               a(1) = (   1.360258   0.000000   0.000000 )  
               a(2) = (  -0.680129   1.178018   0.000000 )  
               a(3) = (   0.000000   0.000000  12.272727 )  

     reciprocal axes: (cart. coord. in units 2 pi/alat)
               b(1) = (  0.735155  0.424442  0.000000 )  
               b(2) = ( -0.000000  0.848884  0.000000 )  
               b(3) = (  0.000000  0.000000  0.081481 )  


     PseudoPot. # 1 for C  read from file:
     /home/yhkim/qe-6.7/pseudo/ONCV1/1.2/C_ONCV_PBE-1.2.upf
     MD5 check sum: 1a5f83a7b1f58d24996abe00ed223ac6
     Pseudo is Norm-conserving, Zval =  4.0
     Generated using ONCVPSP code by D. R. Hamann
     Using radial grid of  602 points,  4 beta functions with: 
                l(1) =   0
                l(2) =   0
                l(3) =   1
                l(4) =   1

     atomic species   valence    mass     pseudopotential
        C              4.00    12.01070     C ( 1.00)

     24 Sym. Ops., with inversion, found



   Cartesian axes

     site n.     atom                  positions (alat units)
         1           C   tau(   1) = (  -0.0000000   0.7853452   6.1363636  )
         2           C   tau(   2) = (   0.6801289   0.3926726   6.1363636  )

     number of k points=    27  Methfessel-Paxton smearing, width (Ry)=  0.0100
                       cart. coord. in units 2pi/alat
        k(    1) = (   0.0000000   0.0000000   0.0000000), wk =   0.0088889
        k(    2) = (  -0.0000000   0.0565922   0.0000000), wk =   0.0533333
        k(    3) = (  -0.0000000   0.1131845   0.0000000), wk =   0.0533333
        k(    4) = (  -0.0000000   0.1697767   0.0000000), wk =   0.0533333
        k(    5) = (  -0.0000000   0.2263690   0.0000000), wk =   0.0533333
        k(    6) = (  -0.0000000   0.2829612   0.0000000), wk =   0.0533333
        k(    7) = (  -0.0000000   0.3395534   0.0000000), wk =   0.0533333
        k(    8) = (  -0.0000000   0.3961457   0.0000000), wk =   0.0533333
        k(    9) = (   0.0490103   0.0848884   0.0000000), wk =   0.0533333
        k(   10) = (   0.0490103   0.1414806   0.0000000), wk =   0.1066667
        k(   11) = (   0.0490103   0.1980728   0.0000000), wk =   0.1066667
        k(   12) = (   0.0490103   0.2546651   0.0000000), wk =   0.1066667
        k(   13) = (   0.0490103   0.3112573   0.0000000), wk =   0.1066667
        k(   14) = (   0.0490103   0.3678496   0.0000000), wk =   0.1066667
        k(   15) = (   0.0490103   0.4244418   0.0000000), wk =   0.0533333
        k(   16) = (   0.0980206   0.1697767   0.0000000), wk =   0.0533333
        k(   17) = (   0.0980206   0.2263690   0.0000000), wk =   0.1066667
        k(   18) = (   0.0980206   0.2829612   0.0000000), wk =   0.1066667
        k(   19) = (   0.0980206   0.3395534   0.0000000), wk =   0.1066667
        k(   20) = (   0.0980206   0.3961457   0.0000000), wk =   0.1066667
        k(   21) = (   0.1470310   0.2546651   0.0000000), wk =   0.0533333
        k(   22) = (   0.1470310   0.3112573   0.0000000), wk =   0.1066667
        k(   23) = (   0.1470310   0.3678496   0.0000000), wk =   0.1066667
        k(   24) = (   0.1470310   0.4244418   0.0000000), wk =   0.0533333
        k(   25) = (   0.1960413   0.3395534   0.0000000), wk =   0.0533333
        k(   26) = (   0.1960413   0.3961457   0.0000000), wk =   0.1066667
        k(   27) = (   0.2450516   0.4244418   0.0000000), wk =   0.0177778

     Dense  grid:    33741 G-vectors     FFT dimensions: (  24,  24, 192)

     Estimated max dynamical RAM per process >       1.89 MB

     Estimated total dynamical RAM >      60.59 MB
 ----2D----2D----2D----2D----2D----2D----2D----2D----2D----2D----2D----2D
  The code is running with the 2D cutoff
  Please refer to:
  Sohier, T., Calandra, M., & Mauri, F. (2017), 
  Density functional perturbation theory for gated two-dimensional heterostructu
 res:
  Theoretical developments and application to flexural phonons in graphene.
  Physical Review B, 96(7), 75448. https://doi.org/10.1103/PhysRevB.96.075448
 ----2D----2D----2D----2D----2D----2D----2D----2D----2D----2D----2D----2D

     Initial potential from superposition of free atoms

     starting charge    7.98607, renormalised to    8.00000

     negative rho (up, down):  1.106E-04 0.000E+00
     Starting wfcs are random

     total cpu time spent up to now is       30.9 secs

     Self-consistent Calculation

     iteration #  1     ecut=    50.00 Ry     beta= 0.70
     Davidson diagonalization with overlap
     c_bands:  5 eigenvalues not converged
     c_bands:  3 eigenvalues not converged
     c_bands:  2 eigenvalues not converged
     c_bands:  4 eigenvalues not converged
     c_bands:  4 eigenvalues not converged
     c_bands:  4 eigenvalues not converged
     c_bands:  3 eigenvalues not converged
     c_bands:  2 eigenvalues not converged
     c_bands:  2 eigenvalues not converged
     c_bands:  5 eigenvalues not converged
     c_bands:  4 eigenvalues not converged
     c_bands:  4 eigenvalues not converged
     c_bands:  4 eigenvalues not converged
     c_bands:  2 eigenvalues not converged
     c_bands:  2 eigenvalues not converged
     c_bands:  4 eigenvalues not converged
     c_bands:  4 eigenvalues not converged
     c_bands:  4 eigenvalues not converged
     c_bands:  2 eigenvalues not converged
     c_bands:  3 eigenvalues not converged
     c_bands:  4 eigenvalues not converged
     c_bands:  3 eigenvalues not converged
     c_bands:  3 eigenvalues not converged
     c_bands:  3 eigenvalues not converged
     c_bands:  4 eigenvalues not converged
     c_bands:  3 eigenvalues not converged
     c_bands:  3 eigenvalues not converged
     ethr =  1.00E-06,  avg # of iterations = 22.2

     negative rho (up, down):  2.219E-05 0.000E+00

     total cpu time spent up to now is       31.7 secs

     total energy              =     -22.73516164 Ry
     estimated scf accuracy    <       0.25764856 Ry

     iteration #  2     ecut=    50.00 Ry     beta= 0.70
     Davidson diagonalization with overlap
     ethr =  3.22E-03,  avg # of iterations =  2.4

     negative rho (up, down):  2.799E-06 0.000E+00

     total cpu time spent up to now is       31.8 secs

     total energy              =     -22.77504642 Ry
     estimated scf accuracy    <       0.00253407 Ry

     iteration #  3     ecut=    50.00 Ry     beta= 0.70
     Davidson diagonalization with overlap
     ethr =  3.17E-05,  avg # of iterations =  8.9

     total cpu time spent up to now is       32.0 secs

     total energy              =     -22.77554139 Ry
     estimated scf accuracy    <       0.00018397 Ry

     iteration #  4     ecut=    50.00 Ry     beta= 0.70
     Davidson diagonalization with overlap
     c_bands:  1 eigenvalues not converged
     ethr =  2.30E-06,  avg # of iterations =  6.4

     total cpu time spent up to now is       32.1 secs

     total energy              =     -22.77555677 Ry
     estimated scf accuracy    <       0.00000142 Ry

     iteration #  5     ecut=    50.00 Ry     beta= 0.70
     Davidson diagonalization with overlap
     ethr =  1.77E-08,  avg # of iterations =  4.1

     total cpu time spent up to now is       32.3 secs

     total energy              =     -22.77555809 Ry
     estimated scf accuracy    <       0.00000004 Ry

     iteration #  6     ecut=    50.00 Ry     beta= 0.70
     Davidson diagonalization with overlap
     ethr =  4.72E-10,  avg # of iterations =  2.6

     total cpu time spent up to now is       32.4 secs

     total energy              =     -22.77555811 Ry
     estimated scf accuracy    <          9.9E-10 Ry

     iteration #  7     ecut=    50.00 Ry     beta= 0.70
     Davidson diagonalization with overlap
     ethr =  1.24E-11,  avg # of iterations =  3.1

     total cpu time spent up to now is       32.5 secs

     End of self-consistent calculation

          k = 0.0000 0.0000 0.0000 (  4135 PWs)   bands (ev):

   -24.3660 -12.3179  -6.9153  -6.9153  -1.0012  -0.2061   0.5757   0.9315

          k =-0.0000 0.0566 0.0000 (  4147 PWs)   bands (ev):

   -24.2541 -12.1807  -7.3629  -7.1689  -0.8479  -0.0500   0.7325   1.0879

          k =-0.0000 0.1132 0.0000 (  4165 PWs)   bands (ev):

   -23.9192 -11.7709  -8.5544  -7.8013  -0.3877   0.4177   1.2030   1.5567

          k =-0.0000 0.1698 0.0000 (  4167 PWs)   bands (ev):

   -23.3631 -11.0953 -10.1906  -8.5862   0.3793   1.1951   1.9871   2.3363

          k =-0.0000 0.2264 0.0000 (  4195 PWs)   bands (ev):

   -22.5910 -12.0291 -10.1678  -9.3488   1.4509   2.2653   3.0841   3.3612

          k =-0.0000 0.2830 0.0000 (  4219 PWs)   bands (ev):

   -21.6084 -13.9069  -9.9793  -9.0261   1.4669   2.8219   3.7115   4.4808

          k =-0.0000 0.3396 0.0000 (  4226 PWs)   bands (ev):

   -20.4275 -15.7230 -10.4235  -7.7585  -0.4957   4.4235   4.8008   5.4014

          k =-0.0000 0.3961 0.0000 (  4232 PWs)   bands (ev):

   -19.0896 -17.3895 -10.6512  -6.6860  -1.9394   4.6151   6.4783   7.3866

          k = 0.0490 0.0849 0.0000 (  4173 PWs)   bands (ev):

   -24.0308 -11.9080  -8.1241  -7.6697  -0.5410   0.2618   1.0462   1.4005

          k = 0.0490 0.1415 0.0000 (  4173 PWs)   bands (ev):

   -23.5852 -11.3640  -9.4379  -8.4788   0.0731   0.8847   1.6737   2.0250

          k = 0.0490 0.1981 0.0000 (  4189 PWs)   bands (ev):

   -22.9211 -11.1150 -10.5611  -9.3107   0.9931   1.8144   2.6149   2.9569

          k = 0.0490 0.2547 0.0000 (  4214 PWs)   bands (ev):

   -22.0441 -12.9420 -10.0348  -9.5220   2.2161   2.4032   3.1118   3.8679

          k = 0.0490 0.3113 0.0000 (  4226 PWs)   bands (ev):

   -20.9621 -14.7752 -10.5827  -8.3007   0.4156   3.7338   4.6223   5.2570

          k = 0.0490 0.3678 0.0000 (  4232 PWs)   bands (ev):

   -19.6942 -16.5184 -10.9234  -7.0573  -1.3481   5.1062   5.6091   6.4564

          k = 0.0490 0.4244 0.0000 (  4237 PWs)   bands (ev):

   -18.5284 -17.8469 -11.0386  -6.3924  -2.1935   5.0952   7.5850   7.7332

          k = 0.0980 0.1698 0.0000 (  4203 PWs)   bands (ev):

   -23.0316 -10.6940 -10.5779  -9.5494   0.8409   1.6614   2.4584   2.8044

          k = 0.0980 0.2264 0.0000 (  4224 PWs)   bands (ev):

   -22.2631 -12.0522 -10.5348  -9.7745   1.9133   2.7302   3.0985   3.5566

          k = 0.0980 0.2830 0.0000 (  4239 PWs)   bands (ev):

   -21.2865 -13.7568 -11.2524  -8.6398   1.1929   3.2860   4.1364   4.9664

          k = 0.0980 0.3396 0.0000 (  4240 PWs)   bands (ev):

   -20.1150 -15.4893 -11.7255  -7.3717  -0.6387   4.9489   5.8031   6.5039

          k = 0.0980 0.3961 0.0000 (  4238 PWs)   bands (ev):

   -18.7950 -17.1082 -11.9616  -6.2757  -2.0381   6.4082   6.9243   7.6594

          k = 0.1470 0.2547 0.0000 (  4249 PWs)   bands (ev):

   -21.3952 -13.0822 -11.8383  -8.7537   1.5199   3.1353   3.9654   4.8113

          k = 0.1470 0.3113 0.0000 (  4257 PWs)   bands (ev):

   -20.3287 -14.4600 -12.7051  -7.5473  -0.1295   4.6513   5.4520   6.3768

          k = 0.1470 0.3678 0.0000 (  4247 PWs)   bands (ev):

   -19.0871 -16.0241 -13.1358  -6.2843  -1.6846   6.4427   7.0276   8.2016

          k = 0.1470 0.4244 0.0000 (  4239 PWs)   bands (ev):

   -17.9733 -17.2617 -13.2687  -5.5548  -2.5172   7.7498   8.1873   8.3718

          k = 0.1960 0.3396 0.0000 (  4261 PWs)   bands (ev):

   -19.1894 -15.2213 -13.9820  -6.3036  -1.5029   6.2937   6.7685   8.0926

          k = 0.1960 0.3961 0.0000 (  4249 PWs)   bands (ev):

   -17.9290 -16.3931 -14.5469  -5.1014  -2.7594   7.1329   8.1539   9.6235

          k = 0.2451 0.4244 0.0000 (  4263 PWs)   bands (ev):

   -16.8669 -16.8669 -15.3550  -3.9042  -3.9042   6.8935   9.6838   9.6838

     the Fermi energy is    -3.9042 ev

!    total energy              =     -22.77555811 Ry
     estimated scf accuracy    <          1.2E-11 Ry
     smearing contrib. (-TS)   =      -0.00005015 Ry
     internal energy E=F+TS    =     -22.77550796 Ry

     The total energy is F=E-TS. E is the sum of the following terms:
     one-electron contribution =    -417.18113394 Ry
     hartree contribution      =     209.28978779 Ry
     xc contribution           =      -7.17454724 Ry
     ewald contribution        =     192.29038543 Ry

     convergence has been achieved in   7 iterations

     Forces acting on atoms (cartesian axes, Ry/au):

     atom    1 type  1   force =     0.00000000    0.00000000    0.00000000
     atom    2 type  1   force =     0.00000000    0.00000000    0.00000000

     Total force =     0.000000     Total SCF correction =     0.000000


     Computing stress (Cartesian axis) and pressure

          total   stress  (Ry/bohr**3)                   (kbar)     P=       37.96
   0.00044625  -0.00000000   0.00000000           65.65       -0.00        0.00
  -0.00000000   0.00044625  -0.00000000           -0.00       65.65       -0.00
   0.00000000  -0.00000000  -0.00011842            0.00       -0.00      -17.42


     Writing output data file ./work/LiC330.save/
 
     init_run     :      0.13s CPU      0.15s WALL (       2 calls)
     electrons    :     29.07s CPU     32.02s WALL (       9 calls)
     update_pot   :      0.05s CPU      0.05s WALL (       7 calls)
     forces       :      0.04s CPU      0.06s WALL (       9 calls)
     stress       :      0.13s CPU      0.13s WALL (       9 calls)

     Called by init_run:
     wfcinit      :      0.09s CPU      0.10s WALL (       2 calls)
     potinit      :      0.02s CPU      0.03s WALL (       2 calls)
     hinit0       :      0.01s CPU      0.01s WALL (       2 calls)

     Called by electrons:
     c_bands      :     26.13s CPU     28.65s WALL (     194 calls)
     sum_band     :      2.61s CPU      2.85s WALL (     194 calls)
     v_of_rho     :      0.22s CPU      0.25s WALL (     202 calls)
     mix_rho      :      0.07s CPU      0.07s WALL (     194 calls)

     Called by c_bands:
     init_us_2    :      0.17s CPU      0.19s WALL (   11016 calls)
     cegterg      :     25.66s CPU     28.08s WALL (    5408 calls)

     Called by *egterg:
     cdiaghg      :      2.93s CPU      3.19s WALL (   33692 calls)
     h_psi        :     20.81s CPU     22.79s WALL (   34015 calls)
     g_psi        :      0.07s CPU      0.08s WALL (   28553 calls)

     Called by h_psi:
     h_psi:calbec :      0.60s CPU      0.66s WALL (   34015 calls)
     vloc_psi     :     19.71s CPU     21.59s WALL (   34015 calls)
     add_vuspsi   :      0.23s CPU      0.26s WALL (   34015 calls)

     General routines
     calbec       :      0.54s CPU      0.60s WALL (   35230 calls)
     fft          :      0.20s CPU      0.21s WALL (    2091 calls)
     ffts         :      0.02s CPU      0.02s WALL (     194 calls)
     fftw         :     21.04s CPU     23.04s WALL (  402334 calls)
 
     Parallel routines
     fft_scatt_xy :      1.13s CPU      1.22s WALL (  404619 calls)
     fft_scatt_yz :      9.66s CPU     10.57s WALL (  404619 calls)
 
     PWSCF        :     29.50s CPU     32.76s WALL

 
   This run was terminated on:  15:41:13  19Jan2024            

=------------------------------------------------------------------------------=
   JOB DONE.
=------------------------------------------------------------------------------=
