
     Program PWSCF v.6.7MaX starts on 19Jan2024 at 14:14:23 

     This program is part of the open-source Quantum ESPRESSO suite
     for quantum simulation of materials; please cite
         "P. Giannozzi et al., J. Phys.:Condens. Matter 21 395502 (2009);
         "P. Giannozzi et al., J. Phys.:Condens. Matter 29 465901 (2017);
          URL http://www.quantum-espresso.org", 
     in publications or presentations arising from this work. More details at
     http://www.quantum-espresso.org/quote

     Parallel version (MPI), running on    32 processors

     MPI processes distributed on     1 nodes
     R & G space division:  proc/nbgrp/npool/nimage =      32
     Waiting for input...
     Reading input from standard input

     Current dimensions of program PWSCF are:
     Max number of different atomic species (ntypx) = 10
     Max number of k-points (npk) =  40000
     Max angular momentum in pseudopotentials (lmaxx) =  3
     Message from routine read_pp_mesh:
     mesh size missing, using the one in header

     Subspace diagonalization in iterative solution of the eigenvalue problem:
     a serial algorithm will be used

 
     Parallelization info
     --------------------
     sticks:   dense  smooth     PW     G-vecs:    dense   smooth      PW
     Min           9       9      2                 1139     1139     170
     Max          10      10      3                 1180     1180     219
     Sum         301     301     91                36951    36951    6517
 


     bravais-lattice index     =            4
     lattice parameter (alat)  =       4.6900  a.u.
     unit-cell volume          =     771.4918 (a.u.)^3
     number of atoms/cell      =            2
     number of atomic types    =            1
     number of electrons       =         8.00
     number of Kohn-Sham states=            8
     kinetic-energy cutoff     =      50.0000  Ry
     charge density cutoff     =     200.0000  Ry
     scf convergence threshold =      1.0E-08
     mixing beta               =       0.7000
     number of iterations used =            8  plain     mixing
     energy convergence thresh.=      1.0E-04
     force convergence thresh. =      1.0E-08
     press convergence thresh. =      1.0E-03
     Exchange-correlation= PBE
                           (   1   4   3   4   0   0   0)
     nstep                     =           50


     celldm(1)=   4.690000  celldm(2)=   0.000000  celldm(3)=   8.635394
     celldm(4)=   0.000000  celldm(5)=   0.000000  celldm(6)=   0.000000

     crystal axes: (cart. coord. in units of alat)
               a(1) = (   1.000000   0.000000   0.000000 )  
               a(2) = (  -0.500000   0.866025   0.000000 )  
               a(3) = (   0.000000   0.000000   8.635394 )  

     reciprocal axes: (cart. coord. in units 2 pi/alat)
               b(1) = (  1.000000  0.577350  0.000000 )  
               b(2) = (  0.000000  1.154701  0.000000 )  
               b(3) = (  0.000000  0.000000  0.115802 )  


     PseudoPot. # 1 for C  read from file:
     /home/yhkim/qe-6.7/pseudo/ONCV1/1.2/C_ONCV_PBE-1.2.upf
     MD5 check sum: 1a5f83a7b1f58d24996abe00ed223ac6
     Pseudo is Norm-conserving, Zval =  4.0
     Generated using ONCVPSP code by D. R. Hamann
     Using radial grid of  602 points,  4 beta functions with: 
                l(1) =   0
                l(2) =   0
                l(3) =   1
                l(4) =   1

     atomic species   valence    mass     pseudopotential
        C              4.00    12.01070     C ( 1.00)

     24 Sym. Ops., with inversion, found



   Cartesian axes

     site n.     atom                  positions (alat units)
         1           C   tau(   1) = (  -0.0000000   0.5773503   4.3176972  )
         2           C   tau(   2) = (   0.5000000   0.2886751   4.3176972  )

     number of k points=    27  Methfessel-Paxton smearing, width (Ry)=  0.0100
                       cart. coord. in units 2pi/alat
        k(    1) = (   0.0000000   0.0000000   0.0000000), wk =   0.0088889
        k(    2) = (   0.0000000   0.0769800   0.0000000), wk =   0.0533333
        k(    3) = (   0.0000000   0.1539601   0.0000000), wk =   0.0533333
        k(    4) = (   0.0000000   0.2309401   0.0000000), wk =   0.0533333
        k(    5) = (   0.0000000   0.3079201   0.0000000), wk =   0.0533333
        k(    6) = (   0.0000000   0.3849002   0.0000000), wk =   0.0533333
        k(    7) = (   0.0000000   0.4618802   0.0000000), wk =   0.0533333
        k(    8) = (   0.0000000   0.5388603   0.0000000), wk =   0.0533333
        k(    9) = (   0.0666667   0.1154701   0.0000000), wk =   0.0533333
        k(   10) = (   0.0666667   0.1924501   0.0000000), wk =   0.1066667
        k(   11) = (   0.0666667   0.2694301   0.0000000), wk =   0.1066667
        k(   12) = (   0.0666667   0.3464102   0.0000000), wk =   0.1066667
        k(   13) = (   0.0666667   0.4233902   0.0000000), wk =   0.1066667
        k(   14) = (   0.0666667   0.5003702   0.0000000), wk =   0.1066667
        k(   15) = (   0.0666667   0.5773503   0.0000000), wk =   0.0533333
        k(   16) = (   0.1333333   0.2309401   0.0000000), wk =   0.0533333
        k(   17) = (   0.1333333   0.3079201   0.0000000), wk =   0.1066667
        k(   18) = (   0.1333333   0.3849002   0.0000000), wk =   0.1066667
        k(   19) = (   0.1333333   0.4618802   0.0000000), wk =   0.1066667
        k(   20) = (   0.1333333   0.5388603   0.0000000), wk =   0.1066667
        k(   21) = (   0.2000000   0.3464102   0.0000000), wk =   0.0533333
        k(   22) = (   0.2000000   0.4233902   0.0000000), wk =   0.1066667
        k(   23) = (   0.2000000   0.5003702   0.0000000), wk =   0.1066667
        k(   24) = (   0.2000000   0.5773503   0.0000000), wk =   0.0533333
        k(   25) = (   0.2666667   0.4618802   0.0000000), wk =   0.0533333
        k(   26) = (   0.2666667   0.5388603   0.0000000), wk =   0.1066667
        k(   27) = (   0.3333333   0.5773503   0.0000000), wk =   0.0177778

     Dense  grid:    36951 G-vectors     FFT dimensions: (  24,  24, 192)

     Estimated max dynamical RAM per process >       1.97 MB

     Estimated total dynamical RAM >      63.00 MB
 ----2D----2D----2D----2D----2D----2D----2D----2D----2D----2D----2D----2D
  The code is running with the 2D cutoff
  Please refer to:
  Sohier, T., Calandra, M., & Mauri, F. (2017), 
  Density functional perturbation theory for gated two-dimensional heterostructu
 res:
  Theoretical developments and application to flexural phonons in graphene.
  Physical Review B, 96(7), 75448. https://doi.org/10.1103/PhysRevB.96.075448
 ----2D----2D----2D----2D----2D----2D----2D----2D----2D----2D----2D----2D

     Initial potential from superposition of free atoms

     starting charge    7.98607, renormalised to    8.00000

     negative rho (up, down):  1.130E-04 0.000E+00
     Starting wfcs are random

     total cpu time spent up to now is        0.1 secs

     Self-consistent Calculation

     iteration #  1     ecut=    50.00 Ry     beta= 0.70
     Davidson diagonalization with overlap
     ethr =  1.00E-02,  avg # of iterations = 12.0

     negative rho (up, down):  9.069E-08 0.000E+00

     total cpu time spent up to now is        0.5 secs

     total energy              =     -22.76273733 Ry
     estimated scf accuracy    <       0.15780559 Ry

     iteration #  2     ecut=    50.00 Ry     beta= 0.70
     Davidson diagonalization with overlap
     ethr =  1.97E-03,  avg # of iterations =  2.1

     total cpu time spent up to now is        0.6 secs

     total energy              =     -22.78750727 Ry
     estimated scf accuracy    <       0.00208342 Ry

     iteration #  3     ecut=    50.00 Ry     beta= 0.70
     Davidson diagonalization with overlap
     c_bands:  1 eigenvalues not converged
     c_bands:  1 eigenvalues not converged
     ethr =  2.60E-05,  avg # of iterations = 10.9

     total cpu time spent up to now is        0.8 secs

     total energy              =     -22.79064115 Ry
     estimated scf accuracy    <       0.00014822 Ry

     iteration #  4     ecut=    50.00 Ry     beta= 0.70
     Davidson diagonalization with overlap
     ethr =  1.85E-06,  avg # of iterations =  5.4

     total cpu time spent up to now is        1.0 secs

     total energy              =     -22.79067562 Ry
     estimated scf accuracy    <       0.00000020 Ry

     iteration #  5     ecut=    50.00 Ry     beta= 0.70
     Davidson diagonalization with overlap
     ethr =  2.56E-09,  avg # of iterations =  4.6

     total cpu time spent up to now is        1.2 secs

     total energy              =     -22.79067856 Ry
     estimated scf accuracy    <       0.00000002 Ry

     iteration #  6     ecut=    50.00 Ry     beta= 0.70
     Davidson diagonalization with overlap
     ethr =  3.12E-10,  avg # of iterations =  2.0

     total cpu time spent up to now is        1.3 secs

     End of self-consistent calculation

          k = 0.0000 0.0000 0.0000 (  4567 PWs)   bands (ev):

   -23.6896 -11.7973  -7.3909  -7.3909  -0.9759  -0.2024   0.5876   0.9423

          k = 0.0000 0.0770 0.0000 (  4603 PWs)   bands (ev):

   -23.5862 -11.6730  -7.8098  -7.6063  -0.8352  -0.0597   0.7312   1.0853

          k = 0.0000 0.1540 0.0000 (  4637 PWs)   bands (ev):

   -23.2761 -11.3043  -8.9270  -8.1587  -0.4130   0.3677   1.1622   1.5139

          k = 0.0000 0.2309 0.0000 (  4631 PWs)   bands (ev):

   -22.7615 -10.6976 -10.4565  -8.8489   0.2901   1.0775   1.8803   2.2259

          k = 0.0000 0.3079 0.0000 (  4607 PWs)   bands (ev):

   -22.0469 -12.1653  -9.8685  -9.5213   1.2718   2.0136   2.4313   2.8818

          k = 0.0000 0.3849 0.0000 (  4613 PWs)   bands (ev):

   -21.1401 -13.9111 -10.0826  -8.8478   0.5430   2.5202   3.2311   3.3666

          k = 0.0000 0.4619 0.0000 (  4627 PWs)   bands (ev):

   -20.0581 -15.5874 -10.4796  -7.7238  -1.1711   2.9938   4.0822   4.9111

          k = 0.0000 0.5389 0.0000 (  4622 PWs)   bands (ev):

   -18.8849 -17.0667 -10.6830  -6.7860  -2.4214   2.8898   5.8636   6.7126

          k = 0.0667 0.1155 0.0000 (  4625 PWs)   bands (ev):

   -23.3793 -11.4268  -8.5280  -8.0428  -0.5537   0.2253   1.0186   1.3711

          k = 0.0667 0.1925 0.0000 (  4618 PWs)   bands (ev):

   -22.9670 -10.9385  -9.7632  -8.7521   0.0093   0.7944   1.5933   1.9419

          k = 0.0667 0.2694 0.0000 (  4611 PWs)   bands (ev):

   -22.3524 -11.3251 -10.2193  -9.4944   0.8524   1.6414   2.4550   2.7827

          k = 0.0667 0.3464 0.0000 (  4604 PWs)   bands (ev):

   -21.5415 -13.0217 -10.1432  -9.2903   1.3643   1.9721   2.7990   3.5899

          k = 0.0667 0.4234 0.0000 (  4615 PWs)   bands (ev):

   -20.5455 -14.7186 -10.6376  -8.2024  -0.3877   3.3263   3.6112   4.2003

          k = 0.0667 0.5004 0.0000 (  4620 PWs)   bands (ev):

   -19.3968 -16.3108 -10.9448  -7.1062  -1.9208   3.3935   5.0428   5.8675

          k = 0.0667 0.5774 0.0000 (  4628 PWs)   bands (ev):

   -18.4750 -17.3842 -11.0479  -6.5303  -2.6502   3.3396   6.8625   7.0216

          k = 0.1333 0.2309 0.0000 (  4599 PWs)   bands (ev):

   -22.4546 -10.8529 -10.3372  -9.6941   0.7127   1.5037   2.3119   2.6541

          k = 0.1333 0.3079 0.0000 (  4603 PWs)   bands (ev):

   -21.7436 -12.2333 -10.5838  -9.5143   1.6949   1.8961   2.4982   3.3171

          k = 0.1333 0.3849 0.0000 (  4599 PWs)   bands (ev):

   -20.8425 -13.8015 -11.2484  -8.5019   0.2584   2.9511   3.7574   4.6008

          k = 0.1333 0.4619 0.0000 (  4600 PWs)   bands (ev):

   -19.7697 -15.3895 -11.6874  -7.3778  -1.3376   4.4471   4.7515   5.2701

          k = 0.1333 0.5389 0.0000 (  4606 PWs)   bands (ev):

   -18.6112 -16.8236 -11.9067  -6.4178  -2.5499   4.5994   6.2566   6.9256

          k = 0.2000 0.3464 0.0000 (  4595 PWs)   bands (ev):

   -20.9421 -13.2438 -11.7300  -8.6036   0.5232   2.8134   3.6035   4.4656

          k = 0.2000 0.4234 0.0000 (  4591 PWs)   bands (ev):

   -19.9615 -14.5091 -12.5391  -7.5291  -0.9262   4.1992   4.9504   5.8953

          k = 0.2000 0.5004 0.0000 (  4590 PWs)   bands (ev):

   -18.8371 -15.9077 -12.9639  -6.4139  -2.2897   5.8223   6.3541   6.3788

          k = 0.2000 0.5774 0.0000 (  4598 PWs)   bands (ev):

   -17.9393 -16.9128 -13.0966  -5.7785  -3.0117   6.2913   6.9853   7.5462

          k = 0.2667 0.4619 0.0000 (  4575 PWs)   bands (ev):

   -18.9220 -15.2928 -13.6332  -6.4239  -2.1507   5.6950   6.1270   7.4170

          k = 0.2667 0.5389 0.0000 (  4585 PWs)   bands (ev):

   -17.8086 -16.3178 -14.1667  -5.3641  -3.2679   6.4825   7.3498   8.0444

          k = 0.3333 0.5774 0.0000 (  4599 PWs)   bands (ev):

   -16.8733 -16.8733 -14.7525  -4.2980  -4.2980   6.2966   8.4474   8.4475

     the Fermi energy is    -4.2980 ev

!    total energy              =     -22.79067857 Ry
     estimated scf accuracy    <          3.7E-10 Ry
     smearing contrib. (-TS)   =      -0.00005015 Ry
     internal energy E=F+TS    =     -22.79062842 Ry

     The total energy is F=E-TS. E is the sum of the following terms:
     one-electron contribution =    -381.75917439 Ry
     hartree contribution      =     191.48532175 Ry
     xc contribution           =      -6.98230129 Ry
     ewald contribution        =     174.46552551 Ry

     convergence has been achieved in   6 iterations

     Forces acting on atoms (cartesian axes, Ry/au):

     atom    1 type  1   force =    -0.00000000   -0.00000000    0.00000000
     atom    2 type  1   force =     0.00000000    0.00000000    0.00000000

     Total force =     0.000000     Total SCF correction =     0.000000


     Computing stress (Cartesian axis) and pressure

          total   stress  (Ry/bohr**3)                   (kbar)     P=      -23.26
  -0.00018439  -0.00000000   0.00000000          -27.12       -0.00        0.00
  -0.00000000  -0.00018439   0.00000000           -0.00      -27.12        0.00
  -0.00000000   0.00000000  -0.00010568           -0.00        0.00      -15.55


     BFGS Geometry Optimization
     Energy error            =      0.0E+00
     Gradient error          =      1.7E-26
     Cell gradient error     =      1.8E-04


     number of scf cycles    =   1
     number of bfgs steps    =   0

     enthalpy new            =     -22.7906785661 Ry

     new trust radius        =       0.0256074404 bohr
     new conv_thr            =       0.0000000100 Ry

     new unit-cell volume =    764.39558 a.u.^3 (   113.27174 Ang^3 )
     density =      0.35215 g/cm^3

CELL_PARAMETERS (alat=  4.69000000)
   0.995390323  -0.000000000   0.000000000
  -0.497695161   0.862033306   0.000000000
   0.000000000   0.000000000   8.635394456

ATOMIC_POSITIONS (crystal)
C             0.3333333333        0.6666666667        0.5000000000
C             0.6666666667        0.3333333333        0.5000000000



     Writing output data file ./work/LiC469.save/
     NEW-OLD atomic charge density approx. for the potential

     negative rho (up, down):  1.243E-06 0.000E+00
     extrapolated charge    7.92586, renormalised to    8.00000

     total cpu time spent up to now is        1.3 secs

     Self-consistent Calculation

     iteration #  1     ecut=    50.00 Ry     beta= 0.70
     Davidson diagonalization with overlap
     c_bands:  2 eigenvalues not converged
     c_bands:  1 eigenvalues not converged
     c_bands:  1 eigenvalues not converged
     c_bands:  1 eigenvalues not converged
     ethr =  1.00E-06,  avg # of iterations = 13.5

     negative rho (up, down):  1.859E-08 0.000E+00

     total cpu time spent up to now is        1.7 secs

     total energy              =     -22.78885874 Ry
     estimated scf accuracy    <       0.00152000 Ry

     iteration #  2     ecut=    50.00 Ry     beta= 0.70
     Davidson diagonalization with overlap
     ethr =  1.90E-05,  avg # of iterations = 10.5

     total cpu time spent up to now is        1.9 secs

     total energy              =     -22.79185944 Ry
     estimated scf accuracy    <       0.00140870 Ry

     iteration #  3     ecut=    50.00 Ry     beta= 0.70
     Davidson diagonalization with overlap
     ethr =  1.76E-05,  avg # of iterations =  1.0

     total cpu time spent up to now is        2.0 secs

     total energy              =     -22.79177062 Ry
     estimated scf accuracy    <       0.00031862 Ry

     iteration #  4     ecut=    50.00 Ry     beta= 0.70
     Davidson diagonalization with overlap
     ethr =  3.98E-06,  avg # of iterations =  3.1

     total cpu time spent up to now is        2.1 secs

     total energy              =     -22.79179469 Ry
     estimated scf accuracy    <       0.00004337 Ry

     iteration #  5     ecut=    50.00 Ry     beta= 0.70
     Davidson diagonalization with overlap
     ethr =  5.42E-07,  avg # of iterations =  1.1

     total cpu time spent up to now is        2.2 secs

     total energy              =     -22.79178593 Ry
     estimated scf accuracy    <       0.00004399 Ry

     iteration #  6     ecut=    50.00 Ry     beta= 0.70
     Davidson diagonalization with overlap
     ethr =  5.42E-07,  avg # of iterations =  1.0

     total cpu time spent up to now is        2.3 secs

     total energy              =     -22.79177146 Ry
     estimated scf accuracy    <       0.00002471 Ry

     iteration #  7     ecut=    50.00 Ry     beta= 0.70
     Davidson diagonalization with overlap
     ethr =  3.09E-07,  avg # of iterations =  2.0

     total cpu time spent up to now is        2.4 secs

     total energy              =     -22.79177501 Ry
     estimated scf accuracy    <       0.00000032 Ry

     iteration #  8     ecut=    50.00 Ry     beta= 0.70
     Davidson diagonalization with overlap
     ethr =  4.02E-09,  avg # of iterations =  3.1

     total cpu time spent up to now is        2.5 secs

     total energy              =     -22.79177514 Ry
     estimated scf accuracy    <       0.00000006 Ry

     iteration #  9     ecut=    50.00 Ry     beta= 0.70
     Davidson diagonalization with overlap
     ethr =  8.12E-10,  avg # of iterations =  1.9

     total cpu time spent up to now is        2.6 secs

     End of self-consistent calculation

          k = 0.0000 0.0000 0.0000 (  4567 PWs)   bands (ev):

   -23.7605 -11.8509  -7.3497  -7.3497  -0.9785  -0.2023   0.5869   0.9417

          k = 0.0000 0.0773 0.0000 (  4603 PWs)   bands (ev):

   -23.6562 -11.7252  -7.7705  -7.5683  -0.8365  -0.0582   0.7320   1.0861

          k = 0.0000 0.1547 0.0000 (  4637 PWs)   bands (ev):

   -23.3436 -11.3523  -8.8938  -8.1284  -0.4105   0.3733   1.1670   1.5188

          k = 0.0000 0.2320 0.0000 (  4631 PWs)   bands (ev):

   -22.8248 -10.7386 -10.4330  -8.8279   0.2991   1.0900   1.8917   2.2374

          k = 0.0000 0.3093 0.0000 (  4607 PWs)   bands (ev):

   -22.1042 -12.1542  -9.8997  -9.5088   1.2900   2.0462   2.5405   2.9034

          k = 0.0000 0.3867 0.0000 (  4613 PWs)   bands (ev):

   -21.1894 -13.9133 -10.0770  -8.8667   0.6362   2.5516   3.3978   3.4019

          k = 0.0000 0.4640 0.0000 (  4627 PWs)   bands (ev):

   -20.0970 -15.6041 -10.4787  -7.7282  -1.1031   3.1643   4.1293   4.9614

          k = 0.0000 0.5414 0.0000 (  4622 PWs)   bands (ev):

   -18.9063 -17.1032 -10.6844  -6.7769  -2.3727   3.0645   5.9255   6.7815

          k = 0.0670 0.1160 0.0000 (  4625 PWs)   bands (ev):

   -23.4477 -11.4762  -8.4919  -8.0111  -0.5524   0.2295   1.0220   1.3747

          k = 0.0670 0.1933 0.0000 (  4618 PWs)   bands (ev):

   -23.0319 -10.9823  -9.7340  -8.7298   0.0157   0.8040   1.6021   1.9509

          k = 0.0670 0.2707 0.0000 (  4611 PWs)   bands (ev):

   -22.4123 -11.3067 -10.2547  -9.4810   0.8666   1.6596   2.4716   2.8023

          k = 0.0670 0.3480 0.0000 (  4604 PWs)   bands (ev):

   -21.5945 -13.0162 -10.1371  -9.3146   1.4704   1.9968   2.8294   3.6226

          k = 0.0670 0.4254 0.0000 (  4615 PWs)   bands (ev):

   -20.5894 -14.7270 -10.6370  -8.2132  -0.3069   3.3776   3.7713   4.2436

          k = 0.0670 0.5027 0.0000 (  4620 PWs)   bands (ev):

   -19.4280 -16.3350 -10.9475  -7.1022  -1.8630   3.5694   5.0974   5.9278

          k = 0.0670 0.5800 0.0000 (  4628 PWs)   bands (ev):

   -18.4836 -17.4321 -11.0517  -6.5175  -2.6040   3.5172   6.9354   7.0934

          k = 0.1340 0.2320 0.0000 (  4599 PWs)   bands (ev):

   -22.5152 -10.8280 -10.3740  -9.6843   0.7256   1.5201   2.3273   2.6697

          k = 0.1340 0.3093 0.0000 (  4603 PWs)   bands (ev):

   -21.7983 -12.2175 -10.5836  -9.5414   1.7169   2.0129   2.5258   3.3419

          k = 0.1340 0.3867 0.0000 (  4599 PWs)   bands (ev):

   -20.8893 -13.7991 -11.2536  -8.5166   0.3520   2.9850   3.7962   4.6405

          k = 0.1340 0.4640 0.0000 (  4600 PWs)   bands (ev):

   -19.8061 -15.4021 -11.6960  -7.3782  -1.2677   4.5045   4.9249   5.3246

          k = 0.1340 0.5414 0.0000 (  4606 PWs)   bands (ev):

   -18.6306 -16.8554 -11.9170  -6.4044  -2.4985   4.7837   6.3228   7.0003

          k = 0.2009 0.3480 0.0000 (  4595 PWs)   bands (ev):

   -20.9899 -13.2301 -11.7450  -8.6197   0.6227   2.8459   3.6406   4.5012

          k = 0.2009 0.4254 0.0000 (  4591 PWs)   bands (ev):

   -20.0002 -14.5061 -12.5607  -7.5318  -0.8466   4.2449   5.0017   5.9459

          k = 0.2009 0.5027 0.0000 (  4590 PWs)   bands (ev):

   -18.8636 -15.9213 -12.9866  -6.4018  -2.2294   5.8867   6.4223   6.5696

          k = 0.2009 0.5800 0.0000 (  4598 PWs)   bands (ev):

   -17.9458 -16.9480 -13.1194  -5.7571  -2.9624   6.4857   7.0617   7.6300

          k = 0.2679 0.4640 0.0000 (  4575 PWs)   bands (ev):

   -18.9504 -15.2882 -13.6726  -6.4125  -2.0860   5.7556   6.1918   7.4817

          k = 0.2679 0.5414 0.0000 (  4585 PWs)   bands (ev):

   -17.8221 -16.3264 -14.2109  -5.3385  -3.2177   6.5477   7.4339   8.2361

          k = 0.3349 0.5800 0.0000 (  4599 PWs)   bands (ev):

   -16.8755 -16.8755 -14.8158  -4.2594  -4.2594   6.3565   8.5834   8.5834

     the Fermi energy is    -4.2594 ev

!    total energy              =     -22.79177515 Ry
     estimated scf accuracy    <          3.1E-09 Ry
     smearing contrib. (-TS)   =      -0.00005015 Ry
     internal energy E=F+TS    =     -22.79172500 Ry

     The total energy is F=E-TS. E is the sum of the following terms:
     one-electron contribution =    -385.34501408 Ry
     hartree contribution      =     193.28748629 Ry
     xc contribution           =      -7.00207944 Ry
     ewald contribution        =     176.26788224 Ry

     convergence has been achieved in   9 iterations

     Forces acting on atoms (cartesian axes, Ry/au):

     atom    1 type  1   force =     0.00000000    0.00000000    0.00000000
     atom    2 type  1   force =     0.00000000    0.00000000    0.00000000

     Total force =     0.000000     Total SCF correction =     0.000000


     Computing stress (Cartesian axis) and pressure

          total   stress  (Ry/bohr**3)                   (kbar)     P=      -17.33
  -0.00012421  -0.00000000   0.00000000          -18.27       -0.00        0.00
  -0.00000000  -0.00012421  -0.00000000           -0.00      -18.27       -0.00
   0.00000000  -0.00000000  -0.00010503            0.00       -0.00      -15.45

     Energy error            =      1.1E-03
     Gradient error          =      0.0E+00
     Cell gradient error     =      1.2E-04


     number of scf cycles    =   2
     number of bfgs steps    =   1

     enthalpy old            =     -22.7906785661 Ry
     enthalpy new            =     -22.7917751463 Ry

     CASE: enthalpy_new < enthalpy_old

     new trust radius        =       0.0281681845 bohr
     new conv_thr            =            1.0E-10 Ry

     new unit-cell volume =    756.62756 a.u.^3 (   112.12064 Ang^3 )
     density =      0.35576 g/cm^3

CELL_PARAMETERS (alat=  4.69000000)
   0.990319678  -0.000000000   0.000000000
  -0.495159839   0.857641999   0.000000000
   0.000000000   0.000000000   8.635394456

ATOMIC_POSITIONS (crystal)
C             0.3333333333        0.6666666667        0.5000000000
C             0.6666666667        0.3333333333        0.5000000000



     Writing output data file ./work/LiC469.save/
     NEW-OLD atomic charge density approx. for the potential

     negative rho (up, down):  3.778E-07 0.000E+00
     extrapolated charge    7.91801, renormalised to    8.00000

     total cpu time spent up to now is        2.7 secs

     Self-consistent Calculation

     iteration #  1     ecut=    50.00 Ry     beta= 0.70
     Davidson diagonalization with overlap
     c_bands:  2 eigenvalues not converged
     c_bands:  1 eigenvalues not converged
     c_bands:  1 eigenvalues not converged
     ethr =  1.00E-06,  avg # of iterations = 13.8

     total cpu time spent up to now is        3.1 secs

     total energy              =     -22.78891255 Ry
     estimated scf accuracy    <       0.00185080 Ry

     iteration #  2     ecut=    50.00 Ry     beta= 0.70
     Davidson diagonalization with overlap
     ethr =  2.31E-05,  avg # of iterations = 10.2

     total cpu time spent up to now is        3.3 secs

     total energy              =     -22.79257576 Ry
     estimated scf accuracy    <       0.00172652 Ry

     iteration #  3     ecut=    50.00 Ry     beta= 0.70
     Davidson diagonalization with overlap
     ethr =  2.16E-05,  avg # of iterations =  1.0

     total cpu time spent up to now is        3.4 secs

     total energy              =     -22.79246134 Ry
     estimated scf accuracy    <       0.00039038 Ry

     iteration #  4     ecut=    50.00 Ry     beta= 0.70
     Davidson diagonalization with overlap
     ethr =  4.88E-06,  avg # of iterations =  3.1

     total cpu time spent up to now is        3.5 secs

     total energy              =     -22.79249371 Ry
     estimated scf accuracy    <       0.00004558 Ry

     iteration #  5     ecut=    50.00 Ry     beta= 0.70
     Davidson diagonalization with overlap
     ethr =  5.70E-07,  avg # of iterations =  1.4

     total cpu time spent up to now is        3.6 secs

     total energy              =     -22.79248897 Ry
     estimated scf accuracy    <       0.00004710 Ry

     iteration #  6     ecut=    50.00 Ry     beta= 0.70
     Davidson diagonalization with overlap
     ethr =  5.70E-07,  avg # of iterations =  1.0

     total cpu time spent up to now is        3.7 secs

     total energy              =     -22.79246829 Ry
     estimated scf accuracy    <       0.00003521 Ry

     iteration #  7     ecut=    50.00 Ry     beta= 0.70
     Davidson diagonalization with overlap
     ethr =  4.40E-07,  avg # of iterations =  2.3

     total cpu time spent up to now is        3.8 secs

     total energy              =     -22.79247268 Ry
     estimated scf accuracy    <       0.00000096 Ry

     iteration #  8     ecut=    50.00 Ry     beta= 0.70
     Davidson diagonalization with overlap
     ethr =  1.20E-08,  avg # of iterations =  2.3

     total cpu time spent up to now is        3.9 secs

     total energy              =     -22.79247295 Ry
     estimated scf accuracy    <       0.00000020 Ry

     iteration #  9     ecut=    50.00 Ry     beta= 0.70
     Davidson diagonalization with overlap
     ethr =  2.56E-09,  avg # of iterations =  1.3

     total cpu time spent up to now is        4.0 secs

     total energy              =     -22.79247295 Ry
     estimated scf accuracy    <       0.00000003 Ry

     iteration # 10     ecut=    50.00 Ry     beta= 0.70
     Davidson diagonalization with overlap
     ethr =  3.61E-10,  avg # of iterations =  2.1

     total cpu time spent up to now is        4.1 secs

     total energy              =     -22.79247296 Ry
     estimated scf accuracy    <       0.00000001 Ry

     iteration # 11     ecut=    50.00 Ry     beta= 0.70
     Davidson diagonalization with overlap
     ethr =  1.36E-10,  avg # of iterations =  1.0

     total cpu time spent up to now is        4.2 secs

     total energy              =     -22.79247296 Ry
     estimated scf accuracy    <          1.9E-09 Ry

     iteration # 12     ecut=    50.00 Ry     beta= 0.70
     Davidson diagonalization with overlap
     ethr =  2.38E-11,  avg # of iterations =  1.3

     total cpu time spent up to now is        4.3 secs

     total energy              =     -22.79247296 Ry
     estimated scf accuracy    <          2.0E-10 Ry

     iteration # 13     ecut=    50.00 Ry     beta= 0.70
     Davidson diagonalization with overlap
     ethr =  2.51E-12,  avg # of iterations =  2.5

     total cpu time spent up to now is        4.4 secs

     total energy              =     -22.79247296 Ry
     estimated scf accuracy    <          1.1E-10 Ry

     iteration # 14     ecut=    50.00 Ry     beta= 0.70
     Davidson diagonalization with overlap
     ethr =  1.36E-12,  avg # of iterations =  1.0

     total cpu time spent up to now is        4.5 secs

     End of self-consistent calculation

          k = 0.0000 0.0000 0.0000 (  4567 PWs)   bands (ev):

   -23.8375 -11.9094  -7.3013  -7.3013  -0.9813  -0.2023   0.5868   0.9415

          k = 0.0000 0.0777 0.0000 (  4603 PWs)   bands (ev):

   -23.7322 -11.7822  -7.7244  -7.5236  -0.8379  -0.0567   0.7333   1.0874

          k = 0.0000 0.1555 0.0000 (  4637 PWs)   bands (ev):

   -23.4168 -11.4046  -8.8545  -8.0924  -0.4076   0.3793   1.1727   1.5247

          k = 0.0000 0.2332 0.0000 (  4631 PWs)   bands (ev):

   -22.8932 -10.7831 -10.4048  -8.8021   0.3092   1.1036   1.9049   2.2510

          k = 0.0000 0.3109 0.0000 (  4607 PWs)   bands (ev):

   -22.1660 -12.1398  -9.9333  -9.4927   1.3101   2.0787   2.6661   2.9276

          k = 0.0000 0.3887 0.0000 (  4613 PWs)   bands (ev):

   -21.2425 -13.9137 -10.0685  -8.8865   0.7415   2.5862   3.4411   3.5846

          k = 0.0000 0.4664 0.0000 (  4627 PWs)   bands (ev):

   -20.1385 -15.6206 -10.4754  -7.7318  -1.0260   3.3549   4.1829   5.0171

          k = 0.0000 0.5441 0.0000 (  4622 PWs)   bands (ev):

   -18.9284 -17.1415 -10.6839  -6.7653  -2.3173   3.2609   5.9947   6.8582

          k = 0.0673 0.1166 0.0000 (  4625 PWs)   bands (ev):

   -23.5218 -11.5300  -8.4494  -7.9733  -0.5510   0.2341   1.0263   1.3790

          k = 0.0673 0.1943 0.0000 (  4618 PWs)   bands (ev):

   -23.1023 -11.0299  -9.6993  -8.7027   0.0229   0.8147   1.6123   1.9614

          k = 0.0673 0.2721 0.0000 (  4611 PWs)   bands (ev):

   -22.4770 -11.2841 -10.2929  -9.4637   0.8825   1.6795   2.4908   2.8243

          k = 0.0673 0.3498 0.0000 (  4604 PWs)   bands (ev):

   -21.6515 -13.0079 -10.1281  -9.3405   1.5898   2.0243   2.8635   3.6565

          k = 0.0673 0.4275 0.0000 (  4615 PWs)   bands (ev):

   -20.6365 -14.7342 -10.6341  -8.2239  -0.2155   3.4275   3.9584   4.2916

          k = 0.0673 0.5053 0.0000 (  4620 PWs)   bands (ev):

   -19.4611 -16.3598 -10.9483  -7.0964  -1.7974   3.7669   5.1587   5.9947

          k = 0.0673 0.5830 0.0000 (  4628 PWs)   bands (ev):

   -18.4908 -17.4839 -11.0538  -6.5018  -2.5514   3.7168   7.0170   7.1737

          k = 0.1346 0.2332 0.0000 (  4599 PWs)   bands (ev):

   -22.5809 -10.7982 -10.4138  -9.6710   0.7401   1.5384   2.3450   2.6878

          k = 0.1346 0.3109 0.0000 (  4603 PWs)   bands (ev):

   -21.8573 -12.1979 -10.5810  -9.5703   1.7416   2.1441   2.5569   3.3701

          k = 0.1346 0.3887 0.0000 (  4599 PWs)   bands (ev):

   -20.9396 -13.7946 -11.2570  -8.5318   0.4577   3.0228   3.8394   4.6834

          k = 0.1346 0.4664 0.0000 (  4600 PWs)   bands (ev):

   -19.8448 -15.4140 -11.7032  -7.3772  -1.1883   4.5638   5.1243   5.3851

          k = 0.1346 0.5441 0.0000 (  4606 PWs)   bands (ev):

   -18.6506 -16.8888 -11.9261  -6.3882  -2.4400   4.9906   6.3970   7.0834

          k = 0.2020 0.3498 0.0000 (  4595 PWs)   bands (ev):

   -21.0412 -13.2126 -11.7594  -8.6363   0.7352   2.8822   3.6819   4.5414

          k = 0.2020 0.4275 0.0000 (  4591 PWs)   bands (ev):

   -20.0416 -14.5008 -12.5823  -7.5334  -0.7564   4.2959   5.0586   6.0010

          k = 0.2020 0.5053 0.0000 (  4590 PWs)   bands (ev):

   -18.8913 -15.9346 -13.0092  -6.3869  -2.1608   5.9578   6.4984   6.7840

          k = 0.2020 0.5830 0.0000 (  4598 PWs)   bands (ev):

   -17.9507 -16.9860 -13.1422  -5.7318  -2.9062   6.7033   7.1478   7.7240

          k = 0.2693 0.4664 0.0000 (  4575 PWs)   bands (ev):

   -18.9802 -15.2810 -13.7143  -6.3985  -2.0124   5.8233   6.2643   7.5546

          k = 0.2693 0.5441 0.0000 (  4585 PWs)   bands (ev):

   -17.8352 -16.3343 -14.2575  -5.3086  -3.1602   6.6213   7.5265   8.4501

          k = 0.3366 0.5830 0.0000 (  4599 PWs)   bands (ev):

   -16.8757 -16.8757 -14.8845  -4.2148  -4.2148   6.4242   8.7319   8.7319

     the Fermi energy is    -4.2148 ev

!    total energy              =     -22.79247296 Ry
     estimated scf accuracy    <          6.1E-13 Ry
     smearing contrib. (-TS)   =      -0.00005015 Ry
     internal energy E=F+TS    =     -22.79242281 Ry

     The total energy is F=E-TS. E is the sum of the following terms:
     one-electron contribution =    -389.34821669 Ry
     hartree contribution      =     195.29923073 Ry
     xc contribution           =      -7.02403823 Ry
     ewald contribution        =     178.28060138 Ry

     convergence has been achieved in  14 iterations

     Forces acting on atoms (cartesian axes, Ry/au):

     atom    1 type  1   force =     0.00000000    0.00000000    0.00000000
     atom    2 type  1   force =     0.00000000    0.00000000    0.00000000

     Total force =     0.000000     Total SCF correction =     0.000000


     Computing stress (Cartesian axis) and pressure

          total   stress  (Ry/bohr**3)                   (kbar)     P=      -10.52
  -0.00005488   0.00000000   0.00000000           -8.07        0.00        0.00
   0.00000000  -0.00005488   0.00000000            0.00       -8.07        0.00
   0.00000000  -0.00000000  -0.00010488            0.00       -0.00      -15.43

     Energy error            =      7.0E-04
     Gradient error          =      0.0E+00
     Cell gradient error     =      5.5E-05


     number of scf cycles    =   3
     number of bfgs steps    =   2

     enthalpy old            =     -22.7917751463 Ry
     enthalpy new            =     -22.7924729611 Ry

     CASE: enthalpy_new < enthalpy_old

     new trust radius        =       0.0220904240 bohr
     new conv_thr            =            1.0E-10 Ry

     new unit-cell volume =    750.56338 a.u.^3 (   111.22202 Ang^3 )
     density =      0.35864 g/cm^3

CELL_PARAMETERS (alat=  4.69000000)
   0.986343110  -0.000000000   0.000000000
  -0.493171555   0.854198190   0.000000000
   0.000000000   0.000000000   8.635394456

ATOMIC_POSITIONS (crystal)
C             0.3333333333        0.6666666667        0.5000000000
C             0.6666666667        0.3333333333        0.5000000000



     Writing output data file ./work/LiC469.save/
     NEW-OLD atomic charge density approx. for the potential

     negative rho (up, down):  5.174E-08 0.000E+00
     extrapolated charge    7.93548, renormalised to    8.00000

     total cpu time spent up to now is        4.6 secs

     Self-consistent Calculation

     iteration #  1     ecut=    50.00 Ry     beta= 0.70
     Davidson diagonalization with overlap
     c_bands:  2 eigenvalues not converged
     c_bands:  1 eigenvalues not converged
     ethr =  1.00E-06,  avg # of iterations = 13.8

     total cpu time spent up to now is        4.9 secs

     total energy              =     -22.79036118 Ry
     estimated scf accuracy    <       0.00117822 Ry

     iteration #  2     ecut=    50.00 Ry     beta= 0.70
     Davidson diagonalization with overlap
     c_bands:  1 eigenvalues not converged
     ethr =  1.47E-05,  avg # of iterations = 10.7

     total cpu time spent up to now is        5.2 secs

     total energy              =     -22.79270148 Ry
     estimated scf accuracy    <       0.00110309 Ry

     iteration #  3     ecut=    50.00 Ry     beta= 0.70
     Davidson diagonalization with overlap
     ethr =  1.38E-05,  avg # of iterations =  1.0

     total cpu time spent up to now is        5.3 secs

     total energy              =     -22.79263275 Ry
     estimated scf accuracy    <       0.00025025 Ry

     iteration #  4     ecut=    50.00 Ry     beta= 0.70
     Davidson diagonalization with overlap
     ethr =  3.13E-06,  avg # of iterations =  3.1

     total cpu time spent up to now is        5.4 secs

     total energy              =     -22.79265184 Ry
     estimated scf accuracy    <       0.00003580 Ry

     iteration #  5     ecut=    50.00 Ry     beta= 0.70
     Davidson diagonalization with overlap
     ethr =  4.47E-07,  avg # of iterations =  1.0

     total cpu time spent up to now is        5.5 secs

     total energy              =     -22.79264087 Ry
     estimated scf accuracy    <       0.00003756 Ry

     iteration #  6     ecut=    50.00 Ry     beta= 0.70
     Davidson diagonalization with overlap
     ethr =  4.47E-07,  avg # of iterations =  1.0

     total cpu time spent up to now is        5.6 secs

     total energy              =     -22.79263278 Ry
     estimated scf accuracy    <       0.00001486 Ry

     iteration #  7     ecut=    50.00 Ry     beta= 0.70
     Davidson diagonalization with overlap
     ethr =  1.86E-07,  avg # of iterations =  2.0

     total cpu time spent up to now is        5.7 secs

     total energy              =     -22.79263495 Ry
     estimated scf accuracy    <       0.00000019 Ry

     iteration #  8     ecut=    50.00 Ry     beta= 0.70
     Davidson diagonalization with overlap
     ethr =  2.37E-09,  avg # of iterations =  2.9

     total cpu time spent up to now is        5.8 secs

     total energy              =     -22.79263503 Ry
     estimated scf accuracy    <       0.00000004 Ry

     iteration #  9     ecut=    50.00 Ry     beta= 0.70
     Davidson diagonalization with overlap
     ethr =  5.48E-10,  avg # of iterations =  2.0

     total cpu time spent up to now is        5.9 secs

     total energy              =     -22.79263503 Ry
     estimated scf accuracy    <          8.0E-10 Ry

     iteration # 10     ecut=    50.00 Ry     beta= 0.70
     Davidson diagonalization with overlap
     ethr =  1.00E-11,  avg # of iterations =  2.8

     total cpu time spent up to now is        6.0 secs

     total energy              =     -22.79263503 Ry
     estimated scf accuracy    <          3.5E-09 Ry

     iteration # 11     ecut=    50.00 Ry     beta= 0.70
     Davidson diagonalization with overlap
     ethr =  1.00E-11,  avg # of iterations =  2.0

     total cpu time spent up to now is        6.1 secs

     End of self-consistent calculation

          k = 0.0000 0.0000 0.0000 (  4567 PWs)   bands (ev):

   -23.8986 -11.9562  -7.2627  -7.2627  -0.9835  -0.2021   0.5867   0.9414

          k = 0.0000 0.0780 0.0000 (  4603 PWs)   bands (ev):

   -23.7926 -11.8277  -7.6876  -7.4879  -0.8389  -0.0554   0.7344   1.0885

          k = 0.0000 0.1561 0.0000 (  4637 PWs)   bands (ev):

   -23.4749 -11.4464  -8.8233  -8.0636  -0.4052   0.3843   1.1774   1.5294

          k = 0.0000 0.2341 0.0000 (  4631 PWs)   bands (ev):

   -22.9476 -10.8187 -10.3824  -8.7816   0.3173   1.1147   1.9155   2.2620

          k = 0.0000 0.3122 0.0000 (  4607 PWs)   bands (ev):

   -22.2152 -12.1283  -9.9603  -9.4798   1.3263   2.1029   2.7663   2.9468

          k = 0.0000 0.3902 0.0000 (  4613 PWs)   bands (ev):

   -21.2848 -13.9141 -10.0616  -8.9025   0.8247   2.6136   3.4725   3.7320

          k = 0.0000 0.4683 0.0000 (  4627 PWs)   bands (ev):

   -20.1717 -15.6337 -10.4728  -7.7349  -0.9652   3.5048   4.2269   5.0617

          k = 0.0000 0.5463 0.0000 (  4622 PWs)   bands (ev):

   -18.9462 -17.1718 -10.6833  -6.7563  -2.2737   3.4166   6.0499   6.9193

          k = 0.0676 0.1171 0.0000 (  4625 PWs)   bands (ev):

   -23.5806 -11.5731  -8.4156  -7.9431  -0.5497   0.2378   1.0297   1.3825

          k = 0.0676 0.1951 0.0000 (  4618 PWs)   bands (ev):

   -23.1582 -11.0680  -9.6718  -8.6810   0.0287   0.8233   1.6205   1.9697

          k = 0.0676 0.2732 0.0000 (  4611 PWs)   bands (ev):

   -22.5284 -11.2662 -10.3236  -9.4499   0.8952   1.6956   2.5062   2.8411

          k = 0.0676 0.3512 0.0000 (  4604 PWs)   bands (ev):

   -21.6969 -13.0015 -10.1208  -9.3614   1.6841   2.0463   2.8910   3.6825

          k = 0.0676 0.4293 0.0000 (  4615 PWs)   bands (ev):

   -20.6740 -14.7400 -10.6316  -8.2327  -0.1432   3.4647   4.1090   4.3301

          k = 0.0676 0.5073 0.0000 (  4620 PWs)   bands (ev):

   -19.4875 -16.3794 -10.9488  -7.0920  -1.7457   3.9232   5.2077   6.0481

          k = 0.0676 0.5853 0.0000 (  4628 PWs)   bands (ev):

   -18.4964 -17.5254 -11.0553  -6.4895  -2.5101   3.8751   7.0820   7.2377

          k = 0.1352 0.2341 0.0000 (  4599 PWs)   bands (ev):

   -22.6331 -10.7746 -10.4457  -9.6604   0.7517   1.5530   2.3592   2.7022

          k = 0.1352 0.3122 0.0000 (  4603 PWs)   bands (ev):

   -21.9042 -12.1825 -10.5788  -9.5936   1.7613   2.2470   2.5830   3.3926

          k = 0.1352 0.3902 0.0000 (  4599 PWs)   bands (ev):

   -20.9796 -13.7911 -11.2595  -8.5441   0.5414   3.0529   3.8739   4.7174

          k = 0.1352 0.4683 0.0000 (  4600 PWs)   bands (ev):

   -19.8758 -15.4236 -11.7087  -7.3767  -1.1256   4.6094   5.2838   5.4335

          k = 0.1352 0.5463 0.0000 (  4606 PWs)   bands (ev):

   -18.6667 -16.9153 -11.9331  -6.3755  -2.3939   5.1545   6.4562   7.1498

          k = 0.2028 0.3512 0.0000 (  4595 PWs)   bands (ev):

   -21.0821 -13.1988 -11.7708  -8.6499   0.8244   2.9112   3.7148   4.5734

          k = 0.2028 0.4293 0.0000 (  4591 PWs)   bands (ev):

   -20.0746 -14.4967 -12.5992  -7.5351  -0.6850   4.3366   5.1041   6.0454

          k = 0.2028 0.5073 0.0000 (  4590 PWs)   bands (ev):

   -18.9135 -15.9454 -13.0268  -6.3754  -2.1067   6.0139   6.5591   6.9538

          k = 0.2028 0.5853 0.0000 (  4598 PWs)   bands (ev):

   -17.9545 -17.0168 -13.1599  -5.7119  -2.8618   6.8753   7.2162   7.7986

          k = 0.2704 0.4683 0.0000 (  4575 PWs)   bands (ev):

   -19.0040 -15.2752 -13.7472  -6.3876  -1.9541   5.8772   6.3221   7.6133

          k = 0.2704 0.5463 0.0000 (  4585 PWs)   bands (ev):

   -17.8459 -16.3408 -14.2940  -5.2851  -3.1148   6.6797   7.5994   8.6184

          k = 0.3379 0.5853 0.0000 (  4599 PWs)   bands (ev):

   -16.8757 -16.8757 -14.9392  -4.1796  -4.1796   6.4779   8.8473   8.8473

     the Fermi energy is    -4.1796 ev

!    total energy              =     -22.79263503 Ry
     estimated scf accuracy    <          3.2E-11 Ry
     smearing contrib. (-TS)   =      -0.00005015 Ry
     internal energy E=F+TS    =     -22.79258488 Ry

     The total energy is F=E-TS. E is the sum of the following terms:
     one-electron contribution =    -392.53202677 Ry
     hartree contribution      =     196.89936601 Ry
     xc contribution           =      -7.04146298 Ry
     ewald contribution        =     179.88153886 Ry

     convergence has been achieved in  11 iterations

     Forces acting on atoms (cartesian axes, Ry/au):

     atom    1 type  1   force =     0.00000000    0.00000000    0.00000000
     atom    2 type  1   force =     0.00000000    0.00000000    0.00000000

     Total force =     0.000000     Total SCF correction =     0.000000


     Computing stress (Cartesian axis) and pressure

          total   stress  (Ry/bohr**3)                   (kbar)     P=       -4.95
   0.00000181   0.00000000  -0.00000000            0.27        0.00       -0.00
   0.00000000   0.00000181  -0.00000000            0.00        0.27       -0.00
  -0.00000000  -0.00000000  -0.00010458           -0.00       -0.00      -15.38

     Energy error            =      1.6E-04
     Gradient error          =      0.0E+00
     Cell gradient error     =      1.8E-06


     number of scf cycles    =   4
     number of bfgs steps    =   3

     enthalpy old            =     -22.7924729611 Ry
     enthalpy new            =     -22.7926350332 Ry

     CASE: enthalpy_new < enthalpy_old

     new trust radius        =       0.0007032303 bohr
     new conv_thr            =            1.0E-10 Ry

     new unit-cell volume =    750.75605 a.u.^3 (   111.25057 Ang^3 )
     density =      0.35855 g/cm^3

CELL_PARAMETERS (alat=  4.69000000)
   0.986469701  -0.000000000   0.000000000
  -0.493234850   0.854307821   0.000000000
   0.000000000   0.000000000   8.635394456

ATOMIC_POSITIONS (crystal)
C             0.3333333333        0.6666666667        0.5000000000
C             0.6666666667        0.3333333333        0.5000000000



     Writing output data file ./work/LiC469.save/
     NEW-OLD atomic charge density approx. for the potential
     extrapolated charge    8.00205, renormalised to    8.00000

     total cpu time spent up to now is        6.2 secs

     Self-consistent Calculation

     iteration #  1     ecut=    50.00 Ry     beta= 0.70
     Davidson diagonalization with overlap
     ethr =  1.00E-06,  avg # of iterations =  3.8

     Threshold (ethr) on eigenvalues was too large:
     Diagonalizing with lowered threshold

     Davidson diagonalization with overlap
     ethr =  1.47E-08,  avg # of iterations =  1.1

     total cpu time spent up to now is        6.4 secs

     total energy              =     -22.79263272 Ry
     estimated scf accuracy    <       0.00000127 Ry

     iteration #  2     ecut=    50.00 Ry     beta= 0.70
     Davidson diagonalization with overlap
     ethr =  1.59E-08,  avg # of iterations =  3.3

     total cpu time spent up to now is        6.6 secs

     total energy              =     -22.79263529 Ry
     estimated scf accuracy    <       0.00000119 Ry

     iteration #  3     ecut=    50.00 Ry     beta= 0.70
     Davidson diagonalization with overlap
     ethr =  1.49E-08,  avg # of iterations =  1.0

     total cpu time spent up to now is        6.7 secs

     total energy              =     -22.79263521 Ry
     estimated scf accuracy    <       0.00000028 Ry

     iteration #  4     ecut=    50.00 Ry     beta= 0.70
     Davidson diagonalization with overlap
     ethr =  3.46E-09,  avg # of iterations =  1.9

     total cpu time spent up to now is        6.8 secs

     total energy              =     -22.79263523 Ry
     estimated scf accuracy    <       0.00000004 Ry

     iteration #  5     ecut=    50.00 Ry     beta= 0.70
     Davidson diagonalization with overlap
     ethr =  5.07E-10,  avg # of iterations =  1.0

     total cpu time spent up to now is        6.9 secs

     total energy              =     -22.79263522 Ry
     estimated scf accuracy    <       0.00000004 Ry

     iteration #  6     ecut=    50.00 Ry     beta= 0.70
     Davidson diagonalization with overlap
     ethr =  5.07E-10,  avg # of iterations =  1.0

     total cpu time spent up to now is        7.0 secs

     total energy              =     -22.79263520 Ry
     estimated scf accuracy    <       0.00000003 Ry

     iteration #  7     ecut=    50.00 Ry     beta= 0.70
     Davidson diagonalization with overlap
     ethr =  3.29E-10,  avg # of iterations =  2.0

     total cpu time spent up to now is        7.1 secs

     total energy              =     -22.79263520 Ry
     estimated scf accuracy    <          2.1E-10 Ry

     iteration #  8     ecut=    50.00 Ry     beta= 0.70
     Davidson diagonalization with overlap
     ethr =  2.60E-12,  avg # of iterations =  2.4

     total cpu time spent up to now is        7.2 secs

     End of self-consistent calculation

          k = 0.0000 0.0000 0.0000 (  4567 PWs)   bands (ev):

   -23.8968 -11.9548  -7.2641  -7.2641  -0.9834  -0.2022   0.5867   0.9414

          k = 0.0000 0.0780 0.0000 (  4603 PWs)   bands (ev):

   -23.7908 -11.8264  -7.6890  -7.4892  -0.8389  -0.0554   0.7343   1.0885

          k = 0.0000 0.1561 0.0000 (  4637 PWs)   bands (ev):

   -23.4732 -11.4452  -8.8245  -8.0647  -0.4053   0.3841   1.1772   1.5292

          k = 0.0000 0.2341 0.0000 (  4631 PWs)   bands (ev):

   -22.9461 -10.8177 -10.3833  -8.7824   0.3170   1.1143   1.9151   2.2614

          k = 0.0000 0.3121 0.0000 (  4607 PWs)   bands (ev):

   -22.2138 -12.1289  -9.9596  -9.4803   1.3258   2.1022   2.7627   2.9462

          k = 0.0000 0.3902 0.0000 (  4613 PWs)   bands (ev):

   -21.2836 -13.9142 -10.0620  -8.9021   0.8219   2.6127   3.4714   3.7273

          k = 0.0000 0.4682 0.0000 (  4627 PWs)   bands (ev):

   -20.1708 -15.6335 -10.4730  -7.7349  -0.9673   3.4999   4.2254   5.0602

          k = 0.0000 0.5463 0.0000 (  4622 PWs)   bands (ev):

   -18.9458 -17.1710 -10.6835  -6.7567  -2.2752   3.4115   6.0481   6.9172

          k = 0.0676 0.1171 0.0000 (  4625 PWs)   bands (ev):

   -23.5789 -11.5718  -8.4169  -7.9443  -0.5498   0.2377   1.0296   1.3824

          k = 0.0676 0.1951 0.0000 (  4618 PWs)   bands (ev):

   -23.1565 -11.0669  -9.6729  -8.6818   0.0285   0.8230   1.6202   1.9694

          k = 0.0676 0.2731 0.0000 (  4611 PWs)   bands (ev):

   -22.5269 -11.2669 -10.3228  -9.4506   0.8948   1.6950   2.5057   2.8406

          k = 0.0676 0.3512 0.0000 (  4604 PWs)   bands (ev):

   -21.6956 -13.0019 -10.1212  -9.3608   1.6810   2.0456   2.8901   3.6817

          k = 0.0676 0.4292 0.0000 (  4615 PWs)   bands (ev):

   -20.6730 -14.7400 -10.6319  -8.2326  -0.1457   3.4635   4.1040   4.3287

          k = 0.0676 0.5072 0.0000 (  4620 PWs)   bands (ev):

   -19.4869 -16.3789 -10.9489  -7.0923  -1.7474   3.9181   5.2061   6.0463

          k = 0.0676 0.5853 0.0000 (  4628 PWs)   bands (ev):

   -18.4963 -17.5243 -11.0554  -6.4900  -2.5115   3.8699   7.0799   7.2356

          k = 0.1352 0.2341 0.0000 (  4599 PWs)   bands (ev):

   -22.6316 -10.7755 -10.4448  -9.6609   0.7513   1.5525   2.3587   2.7017

          k = 0.1352 0.3121 0.0000 (  4603 PWs)   bands (ev):

   -21.9029 -12.1831 -10.5790  -9.5930   1.7606   2.2436   2.5821   3.3919

          k = 0.1352 0.3902 0.0000 (  4599 PWs)   bands (ev):

   -20.9785 -13.7913 -11.2596  -8.5439   0.5386   3.0519   3.8727   4.7163

          k = 0.1352 0.4682 0.0000 (  4600 PWs)   bands (ev):

   -19.8750 -15.4234 -11.7087  -7.3768  -1.1277   4.6079   5.2785   5.4319

          k = 0.1352 0.5463 0.0000 (  4606 PWs)   bands (ev):

   -18.6663 -16.9146 -11.9330  -6.3760  -2.3955   5.1491   6.4543   7.1476

          k = 0.2027 0.3512 0.0000 (  4595 PWs)   bands (ev):

   -21.0809 -13.1995 -11.7706  -8.6495   0.8214   2.9103   3.7138   4.5723

          k = 0.2027 0.4292 0.0000 (  4591 PWs)   bands (ev):

   -20.0737 -14.4970 -12.5989  -7.5351  -0.6874   4.3353   5.1026   6.0438

          k = 0.2027 0.5072 0.0000 (  4590 PWs)   bands (ev):

   -18.9130 -15.9452 -13.0264  -6.3759  -2.1085   6.0120   6.5571   6.9483

          k = 0.2027 0.5853 0.0000 (  4598 PWs)   bands (ev):

   -17.9545 -17.0160 -13.1595  -5.7126  -2.8634   6.8696   7.2140   7.7962

          k = 0.2703 0.4682 0.0000 (  4575 PWs)   bands (ev):

   -19.0034 -15.2756 -13.7463  -6.3880  -1.9561   5.8754   6.3202   7.6113

          k = 0.2703 0.5463 0.0000 (  4585 PWs)   bands (ev):

   -17.8457 -16.3408 -14.2930  -5.2860  -3.1164   6.6777   7.5970   8.6129

          k = 0.3379 0.5853 0.0000 (  4599 PWs)   bands (ev):

   -16.8759 -16.8759 -14.9376  -4.1808  -4.1808   6.4761   8.8435   8.8435

     the Fermi energy is    -4.1808 ev

!    total energy              =     -22.79263520 Ry
     estimated scf accuracy    <          4.6E-11 Ry
     smearing contrib. (-TS)   =      -0.00005015 Ry
     internal energy E=F+TS    =     -22.79258505 Ry

     The total energy is F=E-TS. E is the sum of the following terms:
     one-electron contribution =    -392.43010267 Ry
     hartree contribution      =     196.84816142 Ry
     xc contribution           =      -7.04090965 Ry
     ewald contribution        =     179.83026585 Ry

     convergence has been achieved in   8 iterations

     Forces acting on atoms (cartesian axes, Ry/au):

     atom    1 type  1   force =     0.00000000    0.00000000    0.00000000
     atom    2 type  1   force =     0.00000000    0.00000000    0.00000000

     Total force =     0.000000     Total SCF correction =     0.000000


     Computing stress (Cartesian axis) and pressure

          total   stress  (Ry/bohr**3)                   (kbar)     P=       -5.13
  -0.00000003  -0.00000000   0.00000000           -0.00       -0.00        0.00
   0.00000000  -0.00000003   0.00000000            0.00       -0.00        0.00
   0.00000000   0.00000000  -0.00010454            0.00        0.00      -15.38

     Energy error            =      1.7E-07
     Gradient error          =      0.0E+00
     Cell gradient error     =      3.1E-08


     number of scf cycles    =   5
     number of bfgs steps    =   4

     enthalpy old            =     -22.7926350332 Ry
     enthalpy new            =     -22.7926352045 Ry

     CASE: enthalpy_new < enthalpy_old

     small trust_radius: resetting bfgs history

     new trust radius        =       0.0000042830 bohr
     new conv_thr            =            1.0E-10 Ry

     new unit-cell volume =    750.75488 a.u.^3 (   111.25039 Ang^3 )
     density =      0.35855 g/cm^3

CELL_PARAMETERS (alat=  4.69000000)
   0.986468930  -0.000000000   0.000000000
  -0.493234465   0.854307153   0.000000000
   0.000000000   0.000000000   8.635394456

ATOMIC_POSITIONS (crystal)
C             0.3333333333        0.6666666667        0.5000000000
C             0.6666666667        0.3333333333        0.5000000000



     Writing output data file ./work/LiC469.save/
     NEW-OLD atomic charge density approx. for the potential
     extrapolated charge    7.99999, renormalised to    8.00000

     total cpu time spent up to now is        7.2 secs

     Self-consistent Calculation

     iteration #  1     ecut=    50.00 Ry     beta= 0.70
     Davidson diagonalization with overlap
     ethr =  1.00E-06,  avg # of iterations =  1.0

     Threshold (ethr) on eigenvalues was too large:
     Diagonalizing with lowered threshold

     Davidson diagonalization with overlap
     ethr =  1.20E-13,  avg # of iterations =  2.1

     total cpu time spent up to now is        7.4 secs

     End of self-consistent calculation

          k = 0.0000 0.0000 0.0000 (  4567 PWs)   bands (ev):

   -23.8978 -11.9557  -7.2650  -7.2650  -0.9840  -0.2025   0.5869   0.9415

          k = 0.0000 0.0780 0.0000 (  4603 PWs)   bands (ev):

   -23.7917 -11.8273  -7.6899  -7.4901  -0.8395  -0.0557   0.7345   1.0886

          k = 0.0000 0.1561 0.0000 (  4637 PWs)   bands (ev):

   -23.4741 -11.4461  -8.8254  -8.0656  -0.4059   0.3838   1.1774   1.5294

          k = 0.0000 0.2341 0.0000 (  4631 PWs)   bands (ev):

   -22.9470 -10.8186 -10.3842  -8.7834   0.3164   1.1140   1.9153   2.2616

          k = 0.0000 0.3121 0.0000 (  4607 PWs)   bands (ev):

   -22.2147 -12.1298  -9.9605  -9.4813   1.3252   2.1018   2.7619   2.9464

          k = 0.0000 0.3902 0.0000 (  4613 PWs)   bands (ev):

   -21.2845 -13.9151 -10.0629  -8.9030   0.8210   2.6121   3.4711   3.7264

          k = 0.0000 0.4682 0.0000 (  4627 PWs)   bands (ev):

   -20.1717 -15.6344 -10.4739  -7.7358  -0.9682   3.4990   4.2248   5.0599

          k = 0.0000 0.5463 0.0000 (  4622 PWs)   bands (ev):

   -18.9467 -17.1719 -10.6844  -6.7576  -2.2761   3.4106   6.0475   6.9168

          k = 0.0676 0.1171 0.0000 (  4625 PWs)   bands (ev):

   -23.5798 -11.5727  -8.4178  -7.9452  -0.5503   0.2374   1.0298   1.3825

          k = 0.0676 0.1951 0.0000 (  4618 PWs)   bands (ev):

   -23.1575 -11.0678  -9.6738  -8.6827   0.0280   0.8227   1.6204   1.9695

          k = 0.0676 0.2731 0.0000 (  4611 PWs)   bands (ev):

   -22.5278 -11.2679 -10.3237  -9.4515   0.8942   1.6947   2.5059   2.8408

          k = 0.0676 0.3512 0.0000 (  4604 PWs)   bands (ev):

   -21.6965 -13.0028 -10.1221  -9.3617   1.6801   2.0450   2.8898   3.6819

          k = 0.0676 0.4292 0.0000 (  4615 PWs)   bands (ev):

   -20.6739 -14.7409 -10.6328  -8.2335  -0.1466   3.4629   4.1032   4.3284

          k = 0.0676 0.5072 0.0000 (  4620 PWs)   bands (ev):

   -19.4878 -16.3798 -10.9498  -7.0932  -1.7483   3.9172   5.2055   6.0459

          k = 0.0676 0.5853 0.0000 (  4628 PWs)   bands (ev):

   -18.4973 -17.5252 -11.0563  -6.4909  -2.5124   3.8691   7.0792   7.2350

          k = 0.1352 0.2341 0.0000 (  4599 PWs)   bands (ev):

   -22.6325 -10.7764 -10.4457  -9.6618   0.7507   1.5522   2.3589   2.7019

          k = 0.1352 0.3121 0.0000 (  4603 PWs)   bands (ev):

   -21.9038 -12.1840 -10.5800  -9.5939   1.7601   2.2427   2.5818   3.3921

          k = 0.1352 0.3902 0.0000 (  4599 PWs)   bands (ev):

   -20.9794 -13.7922 -11.2605  -8.5448   0.5377   3.0513   3.8724   4.7165

          k = 0.1352 0.4682 0.0000 (  4600 PWs)   bands (ev):

   -19.8759 -15.4244 -11.7096  -7.3777  -1.1286   4.6073   5.2776   5.4315

          k = 0.1352 0.5463 0.0000 (  4606 PWs)   bands (ev):

   -18.6672 -16.9155 -11.9339  -6.3769  -2.3964   5.1482   6.4537   7.1470

          k = 0.2027 0.3512 0.0000 (  4595 PWs)   bands (ev):

   -21.0818 -13.2004 -11.7715  -8.6504   0.8205   2.9097   3.7134   4.5725

          k = 0.2027 0.4292 0.0000 (  4591 PWs)   bands (ev):

   -20.0746 -14.4979 -12.5998  -7.5360  -0.6883   4.3347   5.1022   6.0440

          k = 0.2027 0.5072 0.0000 (  4590 PWs)   bands (ev):

   -18.9139 -15.9461 -13.0273  -6.3767  -2.1094   6.0114   6.5565   6.9474

          k = 0.2027 0.5853 0.0000 (  4598 PWs)   bands (ev):

   -17.9554 -17.0169 -13.1604  -5.7135  -2.8643   6.8688   7.2132   7.7955

          k = 0.2703 0.4682 0.0000 (  4575 PWs)   bands (ev):

   -19.0043 -15.2765 -13.7472  -6.3889  -1.9570   5.8748   6.3196   7.6113

          k = 0.2703 0.5463 0.0000 (  4585 PWs)   bands (ev):

   -17.8466 -16.3417 -14.2939  -5.2869  -3.1173   6.6769   7.5964   8.6121

          k = 0.3379 0.5853 0.0000 (  4599 PWs)   bands (ev):

   -16.8768 -16.8768 -14.9386  -4.1817  -4.1817   6.4752   8.8428   8.8428

     the Fermi energy is    -4.1817 ev

!    total energy              =     -22.79263520 Ry
     estimated scf accuracy    <          1.1E-11 Ry
     smearing contrib. (-TS)   =      -0.00005015 Ry
     internal energy E=F+TS    =     -22.79258505 Ry

     The total energy is F=E-TS. E is the sum of the following terms:
     one-electron contribution =    -392.43076201 Ry
     hartree contribution      =     196.84851512 Ry
     xc contribution           =      -7.04091622 Ry
     ewald contribution        =     179.83057806 Ry

     convergence has been achieved in   1 iterations

     Forces acting on atoms (cartesian axes, Ry/au):

     atom    1 type  1   force =    -0.00000000   -0.00000000    0.00000000
     atom    2 type  1   force =     0.00000000    0.00000000    0.00000000

     Total force =     0.000000     Total SCF correction =     0.000000


     Computing stress (Cartesian axis) and pressure

          total   stress  (Ry/bohr**3)                   (kbar)     P=       -5.13
  -0.00000003   0.00000000   0.00000000           -0.00        0.00        0.00
   0.00000000  -0.00000003   0.00000000            0.00       -0.00        0.00
  -0.00000000   0.00000000  -0.00010451           -0.00        0.00      -15.37

     Energy error            =      1.7E-11
     Gradient error          =      1.7E-26
     Cell gradient error     =      2.7E-08


     number of scf cycles    =   6
     number of bfgs steps    =   5

     enthalpy old            =     -22.7926352045 Ry
     enthalpy new            =     -22.7926352045 Ry

     CASE: enthalpy_new < enthalpy_old


     WARNING: bfgs curvature condition failed, Theta= 0.926
     Message from routine bfgs:
     history already reset at previous step: stopping
     small trust_radius: resetting bfgs history

     new trust radius        =       0.0000036990 bohr
     new conv_thr            =            1.0E-10 Ry

     new unit-cell volume =    750.75386 a.u.^3 (   111.25024 Ang^3 )
     density =      0.35855 g/cm^3

CELL_PARAMETERS (alat=  4.69000000)
   0.986468264  -0.000000000   0.000000000
  -0.493234132   0.854306577   0.000000000
   0.000000000   0.000000000   8.635394456

ATOMIC_POSITIONS (crystal)
C             0.3333333333        0.6666666667        0.5000000000
C             0.6666666667        0.3333333333        0.5000000000



     Writing output data file ./work/LiC469.save/
     NEW-OLD atomic charge density approx. for the potential
     extrapolated charge    7.99999, renormalised to    8.00000

     total cpu time spent up to now is        7.5 secs

     Self-consistent Calculation

     iteration #  1     ecut=    50.00 Ry     beta= 0.70
     Davidson diagonalization with overlap
     ethr =  1.00E-06,  avg # of iterations =  1.0

     Threshold (ethr) on eigenvalues was too large:
     Diagonalizing with lowered threshold

     Davidson diagonalization with overlap
     ethr =  3.75E-14,  avg # of iterations =  2.0

     total cpu time spent up to now is        7.7 secs

     End of self-consistent calculation

          k = 0.0000 0.0000 0.0000 (  4567 PWs)   bands (ev):

   -23.8975 -11.9555  -7.2648  -7.2648  -0.9839  -0.2024   0.5869   0.9415

          k = 0.0000 0.0780 0.0000 (  4603 PWs)   bands (ev):

   -23.7915 -11.8271  -7.6896  -7.4899  -0.8394  -0.0557   0.7345   1.0886

          k = 0.0000 0.1561 0.0000 (  4637 PWs)   bands (ev):

   -23.4739 -11.4459  -8.8252  -8.0654  -0.4058   0.3839   1.1774   1.5293

          k = 0.0000 0.2341 0.0000 (  4631 PWs)   bands (ev):

   -22.9468 -10.8184 -10.3840  -8.7831   0.3165   1.1141   1.9153   2.2616

          k = 0.0000 0.3121 0.0000 (  4607 PWs)   bands (ev):

   -22.2145 -12.1296  -9.9603  -9.4810   1.3253   2.1019   2.7621   2.9464

          k = 0.0000 0.3902 0.0000 (  4613 PWs)   bands (ev):

   -21.2843 -13.9149 -10.0627  -8.9028   0.8212   2.6122   3.4711   3.7266

          k = 0.0000 0.4682 0.0000 (  4627 PWs)   bands (ev):

   -20.1715 -15.6342 -10.4737  -7.7356  -0.9680   3.4992   4.2249   5.0599

          k = 0.0000 0.5463 0.0000 (  4622 PWs)   bands (ev):

   -18.9465 -17.1717 -10.6842  -6.7574  -2.2759   3.4109   6.0476   6.9169

          k = 0.0676 0.1171 0.0000 (  4625 PWs)   bands (ev):

   -23.5796 -11.5725  -8.4176  -7.9450  -0.5502   0.2375   1.0298   1.3825

          k = 0.0676 0.1951 0.0000 (  4618 PWs)   bands (ev):

   -23.1573 -11.0676  -9.6735  -8.6825   0.0281   0.8227   1.6204   1.9695

          k = 0.0676 0.2731 0.0000 (  4611 PWs)   bands (ev):

   -22.5276 -11.2676 -10.3235  -9.4513   0.8943   1.6948   2.5058   2.8408

          k = 0.0676 0.3512 0.0000 (  4604 PWs)   bands (ev):

   -21.6963 -13.0026 -10.1219  -9.3615   1.6803   2.0451   2.8898   3.6819

          k = 0.0676 0.4292 0.0000 (  4615 PWs)   bands (ev):

   -20.6737 -14.7407 -10.6326  -8.2333  -0.1464   3.4630   4.1034   4.3285

          k = 0.0676 0.5072 0.0000 (  4620 PWs)   bands (ev):

   -19.4876 -16.3796 -10.9496  -7.0930  -1.7481   3.9174   5.2056   6.0460

          k = 0.0676 0.5853 0.0000 (  4628 PWs)   bands (ev):

   -18.4971 -17.5250 -11.0561  -6.4907  -2.5122   3.8693   7.0794   7.2351

          k = 0.1352 0.2341 0.0000 (  4599 PWs)   bands (ev):

   -22.6323 -10.7762 -10.4455  -9.6616   0.7508   1.5523   2.3589   2.7018

          k = 0.1352 0.3121 0.0000 (  4603 PWs)   bands (ev):

   -21.9036 -12.1838 -10.5797  -9.5937   1.7602   2.2429   2.5818   3.3921

          k = 0.1352 0.3902 0.0000 (  4599 PWs)   bands (ev):

   -20.9792 -13.7920 -11.2603  -8.5446   0.5379   3.0515   3.8725   4.7165

          k = 0.1352 0.4682 0.0000 (  4600 PWs)   bands (ev):

   -19.8757 -15.4242 -11.7094  -7.3775  -1.1284   4.6074   5.2778   5.4316

          k = 0.1352 0.5463 0.0000 (  4606 PWs)   bands (ev):

   -18.6670 -16.9153 -11.9337  -6.3767  -2.3962   5.1485   6.4538   7.1471

          k = 0.2027 0.3512 0.0000 (  4595 PWs)   bands (ev):

   -21.0816 -13.2002 -11.7713  -8.6503   0.8207   2.9098   3.7135   4.5725

          k = 0.2027 0.4292 0.0000 (  4591 PWs)   bands (ev):

   -20.0744 -14.4977 -12.5996  -7.5358  -0.6881   4.3348   5.1023   6.0440

          k = 0.2027 0.5072 0.0000 (  4590 PWs)   bands (ev):

   -18.9137 -15.9459 -13.0271  -6.3765  -2.1092   6.0115   6.5566   6.9476

          k = 0.2027 0.5853 0.0000 (  4598 PWs)   bands (ev):

   -17.9552 -17.0167 -13.1602  -5.7133  -2.8641   6.8690   7.2134   7.7956

          k = 0.2703 0.4682 0.0000 (  4575 PWs)   bands (ev):

   -19.0041 -15.2763 -13.7470  -6.3887  -1.9568   5.8749   6.3198   7.6113

          k = 0.2703 0.5463 0.0000 (  4585 PWs)   bands (ev):

   -17.8464 -16.3415 -14.2937  -5.2867  -3.1171   6.6771   7.5965   8.6123

          k = 0.3379 0.5853 0.0000 (  4599 PWs)   bands (ev):

   -16.8766 -16.8766 -14.9383  -4.1815  -4.1815   6.4754   8.8430   8.8430

     the Fermi energy is    -4.1815 ev

!    total energy              =     -22.79263520 Ry
     estimated scf accuracy    <          3.8E-12 Ry
     smearing contrib. (-TS)   =      -0.00005015 Ry
     internal energy E=F+TS    =     -22.79258505 Ry

     The total energy is F=E-TS. E is the sum of the following terms:
     one-electron contribution =    -392.43127311 Ry
     hartree contribution      =     196.84875686 Ry
     xc contribution           =      -7.04091652 Ry
     ewald contribution        =     179.83084771 Ry

     convergence has been achieved in   1 iterations

     Forces acting on atoms (cartesian axes, Ry/au):

     atom    1 type  1   force =     0.00000000    0.00000000    0.00000000
     atom    2 type  1   force =     0.00000000    0.00000000    0.00000000

     Total force =     0.000000     Total SCF correction =     0.000000


     Computing stress (Cartesian axis) and pressure

          total   stress  (Ry/bohr**3)                   (kbar)     P=       -5.13
  -0.00000001  -0.00000000  -0.00000000           -0.00       -0.00       -0.00
   0.00000000  -0.00000001  -0.00000000            0.00       -0.00       -0.00
   0.00000000   0.00000000  -0.00010454            0.00        0.00      -15.38

     Message from routine bfgs:
     history already reset at previous step: stopping
     Energy error            =      6.8E-11
     Gradient error          =      0.0E+00
     Cell gradient error     =      1.4E-08


     bfgs converged in   7 scf cycles and   6 bfgs steps
     (criteria: energy <  1.0E-04 Ry, force <  1.0E-08Ry/Bohr, cell <  1.0E-03kbar)

     End of BFGS Geometry Optimization

     Final enthalpy =     -22.7926352046 Ry

     File ./work/LiC469.bfgs deleted, as requested
Begin final coordinates
     new unit-cell volume =    750.75386 a.u.^3 (   111.25024 Ang^3 )
     density =      0.35855 g/cm^3

CELL_PARAMETERS (alat=  4.69000000)
   0.986468264  -0.000000000   0.000000000
  -0.493234132   0.854306577   0.000000000
   0.000000000   0.000000000   8.635394456

ATOMIC_POSITIONS (crystal)
C             0.3333333333        0.6666666667        0.5000000000
C             0.6666666667        0.3333333333        0.5000000000
End final coordinates



     Writing output data file ./work/LiC469.save/

     Final scf calculation at the relaxed structure.
     The G-vectors are recalculated for the final unit cell
     Results may differ from those at the preceding step.
 
     Parallelization info
     --------------------
     sticks:   dense  smooth     PW     G-vecs:    dense   smooth      PW
     Min           9       9      2                 1115     1115     170
     Max          10      10      3                 1144     1144     215
     Sum         301     301     91                35967    35967    6397
 


     bravais-lattice index     =            4
     lattice parameter (alat)  =       4.6900  a.u.
     unit-cell volume          =     750.7539 (a.u.)^3
     number of atoms/cell      =            2
     number of atomic types    =            1
     number of electrons       =         8.00
     number of Kohn-Sham states=            8
     kinetic-energy cutoff     =      50.0000  Ry
     charge density cutoff     =     200.0000  Ry
     scf convergence threshold =      1.0E-10
     mixing beta               =       0.7000
     number of iterations used =            8  plain     mixing
     press convergence thresh. =      1.0E-03
     Exchange-correlation= PBE
                           (   1   4   3   4   0   0   0)

     celldm(1)=   4.690000  celldm(2)=   0.000000  celldm(3)=   8.635394
     celldm(4)=   0.000000  celldm(5)=   0.000000  celldm(6)=   0.000000

     crystal axes: (cart. coord. in units of alat)
               a(1) = (   0.986468  -0.000000   0.000000 )  
               a(2) = (  -0.493234   0.854307   0.000000 )  
               a(3) = (   0.000000   0.000000   8.635394 )  

     reciprocal axes: (cart. coord. in units 2 pi/alat)
               b(1) = (  1.013717  0.585270  0.000000 )  
               b(2) = (  0.000000  1.170540  0.000000 )  
               b(3) = (  0.000000  0.000000  0.115802 )  


     PseudoPot. # 1 for C  read from file:
     /home/yhkim/qe-6.7/pseudo/ONCV1/1.2/C_ONCV_PBE-1.2.upf
     MD5 check sum: 1a5f83a7b1f58d24996abe00ed223ac6
     Pseudo is Norm-conserving, Zval =  4.0
     Generated using ONCVPSP code by D. R. Hamann
     Using radial grid of  602 points,  4 beta functions with: 
                l(1) =   0
                l(2) =   0
                l(3) =   1
                l(4) =   1

     atomic species   valence    mass     pseudopotential
        C              4.00    12.01070     C ( 1.00)

     24 Sym. Ops., with inversion, found



   Cartesian axes

     site n.     atom                  positions (alat units)
         1           C   tau(   1) = (  -0.0000000   0.5695377   4.3176972  )
         2           C   tau(   2) = (   0.4932341   0.2847689   4.3176972  )

     number of k points=    27  Methfessel-Paxton smearing, width (Ry)=  0.0100
                       cart. coord. in units 2pi/alat
        k(    1) = (   0.0000000   0.0000000   0.0000000), wk =   0.0088889
        k(    2) = (   0.0000000   0.0780360   0.0000000), wk =   0.0533333
        k(    3) = (   0.0000000   0.1560720   0.0000000), wk =   0.0533333
        k(    4) = (   0.0000000   0.2341080   0.0000000), wk =   0.0533333
        k(    5) = (   0.0000000   0.3121440   0.0000000), wk =   0.0533333
        k(    6) = (   0.0000000   0.3901800   0.0000000), wk =   0.0533333
        k(    7) = (   0.0000000   0.4682160   0.0000000), wk =   0.0533333
        k(    8) = (   0.0000000   0.5462520   0.0000000), wk =   0.0533333
        k(    9) = (   0.0675812   0.1170540   0.0000000), wk =   0.0533333
        k(   10) = (   0.0675812   0.1950900   0.0000000), wk =   0.1066667
        k(   11) = (   0.0675812   0.2731260   0.0000000), wk =   0.1066667
        k(   12) = (   0.0675812   0.3511620   0.0000000), wk =   0.1066667
        k(   13) = (   0.0675812   0.4291980   0.0000000), wk =   0.1066667
        k(   14) = (   0.0675812   0.5072340   0.0000000), wk =   0.1066667
        k(   15) = (   0.0675812   0.5852700   0.0000000), wk =   0.0533333
        k(   16) = (   0.1351623   0.2341080   0.0000000), wk =   0.0533333
        k(   17) = (   0.1351623   0.3121440   0.0000000), wk =   0.1066667
        k(   18) = (   0.1351623   0.3901800   0.0000000), wk =   0.1066667
        k(   19) = (   0.1351623   0.4682160   0.0000000), wk =   0.1066667
        k(   20) = (   0.1351623   0.5462520   0.0000000), wk =   0.1066667
        k(   21) = (   0.2027435   0.3511620   0.0000000), wk =   0.0533333
        k(   22) = (   0.2027435   0.4291980   0.0000000), wk =   0.1066667
        k(   23) = (   0.2027435   0.5072340   0.0000000), wk =   0.1066667
        k(   24) = (   0.2027435   0.5852700   0.0000000), wk =   0.0533333
        k(   25) = (   0.2703246   0.4682160   0.0000000), wk =   0.0533333
        k(   26) = (   0.2703246   0.5462520   0.0000000), wk =   0.1066667
        k(   27) = (   0.3379058   0.5852700   0.0000000), wk =   0.0177778

     Dense  grid:    35967 G-vectors     FFT dimensions: (  24,  24, 192)

     Estimated max dynamical RAM per process >       1.96 MB

     Estimated total dynamical RAM >      62.56 MB
 ----2D----2D----2D----2D----2D----2D----2D----2D----2D----2D----2D----2D
  The code is running with the 2D cutoff
  Please refer to:
  Sohier, T., Calandra, M., & Mauri, F. (2017), 
  Density functional perturbation theory for gated two-dimensional heterostructu
 res:
  Theoretical developments and application to flexural phonons in graphene.
  Physical Review B, 96(7), 75448. https://doi.org/10.1103/PhysRevB.96.075448
 ----2D----2D----2D----2D----2D----2D----2D----2D----2D----2D----2D----2D

     Initial potential from superposition of free atoms

     starting charge    7.98607, renormalised to    8.00000

     negative rho (up, down):  1.142E-04 0.000E+00
     Starting wfcs are random

     total cpu time spent up to now is        7.8 secs

     Self-consistent Calculation

     iteration #  1     ecut=    50.00 Ry     beta= 0.70
     Davidson diagonalization with overlap
     c_bands:  1 eigenvalues not converged
     c_bands:  3 eigenvalues not converged
     c_bands:  4 eigenvalues not converged
     c_bands:  4 eigenvalues not converged
     c_bands:  4 eigenvalues not converged
     c_bands:  4 eigenvalues not converged
     c_bands:  3 eigenvalues not converged
     c_bands:  2 eigenvalues not converged
     c_bands:  3 eigenvalues not converged
     c_bands:  5 eigenvalues not converged
     c_bands:  5 eigenvalues not converged
     c_bands:  4 eigenvalues not converged
     c_bands:  4 eigenvalues not converged
     c_bands:  2 eigenvalues not converged
     c_bands:  2 eigenvalues not converged
     c_bands:  4 eigenvalues not converged
     c_bands:  4 eigenvalues not converged
     c_bands:  3 eigenvalues not converged
     c_bands:  2 eigenvalues not converged
     c_bands:  3 eigenvalues not converged
     c_bands:  4 eigenvalues not converged
     c_bands:  3 eigenvalues not converged
     c_bands:  3 eigenvalues not converged
     c_bands:  3 eigenvalues not converged
     c_bands:  3 eigenvalues not converged
     c_bands:  3 eigenvalues not converged
     c_bands:  3 eigenvalues not converged
     ethr =  1.00E-06,  avg # of iterations = 22.2

     negative rho (up, down):  2.293E-05 0.000E+00

     total cpu time spent up to now is        8.6 secs

     total energy              =     -22.75945071 Ry
     estimated scf accuracy    <       0.20226519 Ry

     iteration #  2     ecut=    50.00 Ry     beta= 0.70
     Davidson diagonalization with overlap
     ethr =  2.53E-03,  avg # of iterations =  2.4

     negative rho (up, down):  2.991E-06 0.000E+00

     total cpu time spent up to now is        8.7 secs

     total energy              =     -22.78997534 Ry
     estimated scf accuracy    <       0.00235410 Ry

     iteration #  3     ecut=    50.00 Ry     beta= 0.70
     Davidson diagonalization with overlap
     ethr =  2.94E-05,  avg # of iterations =  8.7

     total cpu time spent up to now is        8.9 secs

     total energy              =     -22.79037823 Ry
     estimated scf accuracy    <       0.00017356 Ry

     iteration #  4     ecut=    50.00 Ry     beta= 0.70
     Davidson diagonalization with overlap
     c_bands:  1 eigenvalues not converged
     ethr =  2.17E-06,  avg # of iterations =  6.0

     total cpu time spent up to now is        9.1 secs

     total energy              =     -22.79039227 Ry
     estimated scf accuracy    <       0.00000121 Ry

     iteration #  5     ecut=    50.00 Ry     beta= 0.70
     Davidson diagonalization with overlap
     ethr =  1.51E-08,  avg # of iterations =  3.6

     total cpu time spent up to now is        9.2 secs

     total energy              =     -22.79039367 Ry
     estimated scf accuracy    <       0.00000004 Ry

     iteration #  6     ecut=    50.00 Ry     beta= 0.70
     Davidson diagonalization with overlap
     ethr =  4.66E-10,  avg # of iterations =  2.4

     total cpu time spent up to now is        9.3 secs

     total energy              =     -22.79039368 Ry
     estimated scf accuracy    <          7.6E-10 Ry

     iteration #  7     ecut=    50.00 Ry     beta= 0.70
     Davidson diagonalization with overlap
     ethr =  9.53E-12,  avg # of iterations =  3.3

     total cpu time spent up to now is        9.4 secs

     End of self-consistent calculation

          k = 0.0000 0.0000 0.0000 (  4459 PWs)   bands (ev):

   -23.9001 -11.9563  -7.2571  -7.2571  -0.9842  -0.2037   0.5834   0.9386

          k = 0.0000 0.0780 0.0000 (  4449 PWs)   bands (ev):

   -23.7937 -11.8275  -7.6840  -7.4833  -0.8396  -0.0570   0.7311   1.0858

          k = 0.0000 0.1561 0.0000 (  4481 PWs)   bands (ev):

   -23.4760 -11.4464  -8.8192  -8.0587  -0.4059   0.3826   1.1739   1.5264

          k = 0.0000 0.2341 0.0000 (  4463 PWs)   bands (ev):

   -22.9488 -10.8187 -10.3767  -8.7758   0.3164   1.1128   1.9119   2.2587

          k = 0.0000 0.3121 0.0000 (  4497 PWs)   bands (ev):

   -22.2165 -12.1297  -9.9595  -9.4770   1.3252   2.1009   2.7629   2.9430

          k = 0.0000 0.3902 0.0000 (  4507 PWs)   bands (ev):

   -21.2864 -13.9153 -10.0580  -8.9026   0.8223   2.6122   3.4701   3.7257

          k = 0.0000 0.4682 0.0000 (  4505 PWs)   bands (ev):

   -20.1731 -15.6349 -10.4689  -7.7350  -0.9661   3.4986   4.2248   5.0591

          k = 0.0000 0.5463 0.0000 (  4517 PWs)   bands (ev):

   -18.9482 -17.1728 -10.6808  -6.7572  -2.2761   3.4092   6.0478   6.9161

          k = 0.0676 0.1171 0.0000 (  4471 PWs)   bands (ev):

   -23.5818 -11.5727  -8.4108  -7.9385  -0.5504   0.2362   1.0264   1.3797

          k = 0.0676 0.1951 0.0000 (  4469 PWs)   bands (ev):

   -23.1593 -11.0679  -9.6669  -8.6767   0.0279   0.8215   1.6169   1.9666

          k = 0.0676 0.2731 0.0000 (  4474 PWs)   bands (ev):

   -22.5296 -11.2646 -10.3232  -9.4459   0.8942   1.6936   2.5024   2.8379

          k = 0.0676 0.3512 0.0000 (  4494 PWs)   bands (ev):

   -21.6983 -13.0029 -10.1177  -9.3610   1.6823   2.0451   2.8888   3.6786

          k = 0.0676 0.4292 0.0000 (  4498 PWs)   bands (ev):

   -20.6755 -14.7412 -10.6280  -8.2328  -0.1441   3.4631   4.1027   4.3275

          k = 0.0676 0.5072 0.0000 (  4504 PWs)   bands (ev):

   -19.4892 -16.3805 -10.9451  -7.0932  -1.7476   3.9169   5.2057   6.0451

          k = 0.0676 0.5853 0.0000 (  4494 PWs)   bands (ev):

   -18.4985 -17.5252 -11.0523  -6.4902  -2.5099   3.8687   7.0801   7.2356

          k = 0.1352 0.2341 0.0000 (  4465 PWs)   bands (ev):

   -22.6344 -10.7741 -10.4453  -9.6549   0.7507   1.5511   2.3556   2.6990

          k = 0.1352 0.3121 0.0000 (  4465 PWs)   bands (ev):

   -21.9056 -12.1813 -10.5740  -9.5938   1.7601   2.2464   2.5808   3.3887

          k = 0.1352 0.3902 0.0000 (  4493 PWs)   bands (ev):

   -20.9812 -13.7919 -11.2573  -8.5443   0.5386   3.0515   3.8716   4.7136

          k = 0.1352 0.4682 0.0000 (  4501 PWs)   bands (ev):

   -19.8777 -15.4250 -11.7065  -7.3777  -1.1277   4.6076   5.2785   5.4307

          k = 0.1352 0.5463 0.0000 (  4495 PWs)   bands (ev):

   -18.6684 -16.9164 -11.9310  -6.3770  -2.3954   5.1490   6.4541   7.1470

          k = 0.2027 0.3512 0.0000 (  4469 PWs)   bands (ev):

   -21.0836 -13.1985 -11.7665  -8.6504   0.8222   2.9097   3.7125   4.5691

          k = 0.2027 0.4292 0.0000 (  4473 PWs)   bands (ev):

   -20.0762 -14.4973 -12.5959  -7.5352  -0.6867   4.3349   5.1016   6.0407

          k = 0.2027 0.5072 0.0000 (  4485 PWs)   bands (ev):

   -18.9155 -15.9469 -13.0242  -6.3762  -2.1073   6.0119   6.5566   6.9509

          k = 0.2027 0.5853 0.0000 (  4480 PWs)   bands (ev):

   -17.9568 -17.0176 -13.1578  -5.7119  -2.8619   6.8716   7.2139   7.7973

          k = 0.2703 0.4682 0.0000 (  4461 PWs)   bands (ev):

   -19.0059 -15.2763 -13.7451  -6.3888  -1.9573   5.8752   6.3196   7.6101

          k = 0.2703 0.5463 0.0000 (  4470 PWs)   bands (ev):

   -17.8479 -16.3423 -14.2924  -5.2868  -3.1165   6.6772   7.5974   8.6176

          k = 0.3379 0.5853 0.0000 (  4431 PWs)   bands (ev):

   -16.8766 -16.8766 -14.9378  -4.1802  -4.1802   6.4754   8.8488   8.8490

     the Fermi energy is    -4.1802 ev

!    total energy              =     -22.79039368 Ry
     estimated scf accuracy    <          1.2E-11 Ry
     smearing contrib. (-TS)   =      -0.00005015 Ry
     internal energy E=F+TS    =     -22.79034353 Ry

     The total energy is F=E-TS. E is the sum of the following terms:
     one-electron contribution =    -392.42687389 Ry
     hartree contribution      =     196.84646821 Ry
     xc contribution           =      -7.04078555 Ry
     ewald contribution        =     179.83084770 Ry

     convergence has been achieved in   7 iterations

     Forces acting on atoms (cartesian axes, Ry/au):

     atom    1 type  1   force =    -0.00000000   -0.00000000    0.00000000
     atom    2 type  1   force =     0.00000000    0.00000000    0.00000000

     Total force =     0.000000     Total SCF correction =     0.000000


     Computing stress (Cartesian axis) and pressure

          total   stress  (Ry/bohr**3)                   (kbar)     P=       -6.57
  -0.00001216   0.00000000  -0.00000000           -1.79        0.00       -0.00
   0.00000000  -0.00001216   0.00000000            0.00       -1.79        0.00
   0.00000000  -0.00000000  -0.00010972            0.00       -0.00      -16.14


     Writing output data file ./work/LiC469.save/
 
     init_run     :      0.12s CPU      0.14s WALL (       2 calls)
     electrons    :      8.05s CPU      8.91s WALL (       8 calls)
     update_pot   :      0.07s CPU      0.08s WALL (       6 calls)
     forces       :      0.06s CPU      0.07s WALL (       8 calls)
     stress       :      0.18s CPU      0.19s WALL (       8 calls)

     Called by init_run:
     wfcinit      :      0.08s CPU      0.10s WALL (       2 calls)
     potinit      :      0.01s CPU      0.01s WALL (       2 calls)
     hinit0       :      0.01s CPU      0.01s WALL (       2 calls)

     Called by electrons:
     c_bands      :      6.97s CPU      7.55s WALL (      60 calls)
     sum_band     :      0.94s CPU      1.02s WALL (      60 calls)
     v_of_rho     :      0.11s CPU      0.13s WALL (      65 calls)
     mix_rho      :      0.02s CPU      0.02s WALL (      60 calls)

     Called by c_bands:
     init_us_2    :      0.06s CPU      0.07s WALL (    3726 calls)
     cegterg      :      6.79s CPU      7.34s WALL (    1623 calls)

     Called by *egterg:
     cdiaghg      :      0.68s CPU      0.73s WALL (    7679 calls)
     h_psi        :      5.63s CPU      6.09s WALL (    7979 calls)
     g_psi        :      0.02s CPU      0.02s WALL (    6302 calls)

     Called by h_psi:
     h_psi:calbec :      0.23s CPU      0.25s WALL (    7979 calls)
     vloc_psi     :      5.28s CPU      5.71s WALL (    7979 calls)
     add_vuspsi   :      0.06s CPU      0.07s WALL (    7979 calls)

     General routines
     calbec       :      0.27s CPU      0.29s WALL (    9059 calls)
     fft          :      0.11s CPU      0.11s WALL (     715 calls)
     ffts         :      0.01s CPU      0.01s WALL (      60 calls)
     fftw         :      5.74s CPU      6.22s WALL (   97462 calls)
 
     Parallel routines
     fft_scatt_xy :      0.42s CPU      0.45s WALL (   98237 calls)
     fft_scatt_yz :      3.01s CPU      3.25s WALL (   98237 calls)
 
     PWSCF        :      8.56s CPU      9.73s WALL

 
   This run was terminated on:  14:14:33  19Jan2024            

=------------------------------------------------------------------------------=
   JOB DONE.
=------------------------------------------------------------------------------=
