
     Program PWSCF v.6.7MaX starts on 19Jan2024 at 14:11:47 

     This program is part of the open-source Quantum ESPRESSO suite
     for quantum simulation of materials; please cite
         "P. Giannozzi et al., J. Phys.:Condens. Matter 21 395502 (2009);
         "P. Giannozzi et al., J. Phys.:Condens. Matter 29 465901 (2017);
          URL http://www.quantum-espresso.org", 
     in publications or presentations arising from this work. More details at
     http://www.quantum-espresso.org/quote

     Parallel version (MPI), running on    32 processors

     MPI processes distributed on     1 nodes
     R & G space division:  proc/nbgrp/npool/nimage =      32
     Waiting for input...
     Reading input from standard input

     Current dimensions of program PWSCF are:
     Max number of different atomic species (ntypx) = 10
     Max number of k-points (npk) =  40000
     Max angular momentum in pseudopotentials (lmaxx) =  3
     Message from routine read_pp_mesh:
     mesh size missing, using the one in header

     Subspace diagonalization in iterative solution of the eigenvalue problem:
     a serial algorithm will be used

 
     Parallelization info
     --------------------
     sticks:   dense  smooth     PW     G-vecs:    dense   smooth      PW
     Min           7       7      2                  953      953     164
     Max           8       8      3                 1006     1006     205
     Sum         253     253     85                31899    31899    5947
 


     bravais-lattice index     =            4
     lattice parameter (alat)  =       4.3800  a.u.
     unit-cell volume          =     672.8742 (a.u.)^3
     number of atoms/cell      =            2
     number of atomic types    =            1
     number of electrons       =         8.00
     number of Kohn-Sham states=            8
     kinetic-energy cutoff     =      50.0000  Ry
     charge density cutoff     =     200.0000  Ry
     scf convergence threshold =      1.0E-08
     mixing beta               =       0.7000
     number of iterations used =            8  plain     mixing
     energy convergence thresh.=      1.0E-04
     force convergence thresh. =      1.0E-08
     press convergence thresh. =      1.0E-03
     Exchange-correlation= PBE
                           (   1   4   3   4   0   0   0)
     nstep                     =           50


     celldm(1)=   4.380000  celldm(2)=   0.000000  celldm(3)=   9.246575
     celldm(4)=   0.000000  celldm(5)=   0.000000  celldm(6)=   0.000000

     crystal axes: (cart. coord. in units of alat)
               a(1) = (   1.000000   0.000000   0.000000 )  
               a(2) = (  -0.500000   0.866025   0.000000 )  
               a(3) = (   0.000000   0.000000   9.246575 )  

     reciprocal axes: (cart. coord. in units 2 pi/alat)
               b(1) = (  1.000000  0.577350  0.000000 )  
               b(2) = (  0.000000  1.154701  0.000000 )  
               b(3) = (  0.000000  0.000000  0.108148 )  


     PseudoPot. # 1 for C  read from file:
     /home/yhkim/qe-6.7/pseudo/ONCV1/1.2/C_ONCV_PBE-1.2.upf
     MD5 check sum: 1a5f83a7b1f58d24996abe00ed223ac6
     Pseudo is Norm-conserving, Zval =  4.0
     Generated using ONCVPSP code by D. R. Hamann
     Using radial grid of  602 points,  4 beta functions with: 
                l(1) =   0
                l(2) =   0
                l(3) =   1
                l(4) =   1

     atomic species   valence    mass     pseudopotential
        C              4.00    12.01070     C ( 1.00)

     24 Sym. Ops., with inversion, found



   Cartesian axes

     site n.     atom                  positions (alat units)
         1           C   tau(   1) = (  -0.0000000   0.5773503   4.6232877  )
         2           C   tau(   2) = (   0.5000000   0.2886751   4.6232877  )

     number of k points=    27  Methfessel-Paxton smearing, width (Ry)=  0.0100
                       cart. coord. in units 2pi/alat
        k(    1) = (   0.0000000   0.0000000   0.0000000), wk =   0.0088889
        k(    2) = (   0.0000000   0.0769800   0.0000000), wk =   0.0533333
        k(    3) = (   0.0000000   0.1539601   0.0000000), wk =   0.0533333
        k(    4) = (   0.0000000   0.2309401   0.0000000), wk =   0.0533333
        k(    5) = (   0.0000000   0.3079201   0.0000000), wk =   0.0533333
        k(    6) = (   0.0000000   0.3849002   0.0000000), wk =   0.0533333
        k(    7) = (   0.0000000   0.4618802   0.0000000), wk =   0.0533333
        k(    8) = (   0.0000000   0.5388603   0.0000000), wk =   0.0533333
        k(    9) = (   0.0666667   0.1154701   0.0000000), wk =   0.0533333
        k(   10) = (   0.0666667   0.1924501   0.0000000), wk =   0.1066667
        k(   11) = (   0.0666667   0.2694301   0.0000000), wk =   0.1066667
        k(   12) = (   0.0666667   0.3464102   0.0000000), wk =   0.1066667
        k(   13) = (   0.0666667   0.4233902   0.0000000), wk =   0.1066667
        k(   14) = (   0.0666667   0.5003702   0.0000000), wk =   0.1066667
        k(   15) = (   0.0666667   0.5773503   0.0000000), wk =   0.0533333
        k(   16) = (   0.1333333   0.2309401   0.0000000), wk =   0.0533333
        k(   17) = (   0.1333333   0.3079201   0.0000000), wk =   0.1066667
        k(   18) = (   0.1333333   0.3849002   0.0000000), wk =   0.1066667
        k(   19) = (   0.1333333   0.4618802   0.0000000), wk =   0.1066667
        k(   20) = (   0.1333333   0.5388603   0.0000000), wk =   0.1066667
        k(   21) = (   0.2000000   0.3464102   0.0000000), wk =   0.0533333
        k(   22) = (   0.2000000   0.4233902   0.0000000), wk =   0.1066667
        k(   23) = (   0.2000000   0.5003702   0.0000000), wk =   0.1066667
        k(   24) = (   0.2000000   0.5773503   0.0000000), wk =   0.0533333
        k(   25) = (   0.2666667   0.4618802   0.0000000), wk =   0.0533333
        k(   26) = (   0.2666667   0.5388603   0.0000000), wk =   0.1066667
        k(   27) = (   0.3333333   0.5773503   0.0000000), wk =   0.0177778

     Dense  grid:    31899 G-vectors     FFT dimensions: (  20,  20, 192)

     Estimated max dynamical RAM per process >       1.74 MB

     Estimated total dynamical RAM >      55.79 MB
 ----2D----2D----2D----2D----2D----2D----2D----2D----2D----2D----2D----2D
  The code is running with the 2D cutoff
  Please refer to:
  Sohier, T., Calandra, M., & Mauri, F. (2017), 
  Density functional perturbation theory for gated two-dimensional heterostructu
 res:
  Theoretical developments and application to flexural phonons in graphene.
  Physical Review B, 96(7), 75448. https://doi.org/10.1103/PhysRevB.96.075448
 ----2D----2D----2D----2D----2D----2D----2D----2D----2D----2D----2D----2D

     Initial potential from superposition of free atoms

     starting charge    7.98607, renormalised to    8.00000

     negative rho (up, down):  1.059E-04 0.000E+00
     Starting wfcs are random

     total cpu time spent up to now is        0.1 secs

     Self-consistent Calculation

     iteration #  1     ecut=    50.00 Ry     beta= 0.70
     Davidson diagonalization with overlap
     ethr =  1.00E-02,  avg # of iterations = 11.5

     negative rho (up, down):  1.721E-07 0.000E+00

     total cpu time spent up to now is        0.5 secs

     total energy              =     -22.70268093 Ry
     estimated scf accuracy    <       0.27970261 Ry

     iteration #  2     ecut=    50.00 Ry     beta= 0.70
     Davidson diagonalization with overlap
     ethr =  3.50E-03,  avg # of iterations =  2.0

     total cpu time spent up to now is        0.7 secs

     total energy              =     -22.74457166 Ry
     estimated scf accuracy    <       0.00239828 Ry

     iteration #  3     ecut=    50.00 Ry     beta= 0.70
     Davidson diagonalization with overlap
     ethr =  3.00E-05,  avg # of iterations = 10.5

     total cpu time spent up to now is        1.0 secs

     total energy              =     -22.74590053 Ry
     estimated scf accuracy    <       0.00016399 Ry

     iteration #  4     ecut=    50.00 Ry     beta= 0.70
     Davidson diagonalization with overlap
     c_bands:  1 eigenvalues not converged
     c_bands:  1 eigenvalues not converged
     ethr =  2.05E-06,  avg # of iterations =  6.8

     total cpu time spent up to now is        1.1 secs

     total energy              =     -22.74593752 Ry
     estimated scf accuracy    <       0.00000183 Ry

     iteration #  5     ecut=    50.00 Ry     beta= 0.70
     Davidson diagonalization with overlap
     ethr =  2.28E-08,  avg # of iterations =  3.8

     total cpu time spent up to now is        1.3 secs

     total energy              =     -22.74594051 Ry
     estimated scf accuracy    <       0.00000017 Ry

     iteration #  6     ecut=    50.00 Ry     beta= 0.70
     Davidson diagonalization with overlap
     ethr =  2.10E-09,  avg # of iterations =  2.0

     total cpu time spent up to now is        1.4 secs

     End of self-consistent calculation

          k = 0.0000 0.0000 0.0000 (  3943 PWs)   bands (ev):

   -24.7683 -12.6416  -6.6461  -1.0151  -0.2080   0.5698   0.9255   2.2508

          k = 0.0000 0.0770 0.0000 (  3949 PWs)   bands (ev):

   -24.6518 -12.4961  -7.1060  -6.9166  -0.8543  -0.0439   0.7345   1.0899

          k = 0.0000 0.1540 0.0000 (  3965 PWs)   bands (ev):

   -24.3031 -12.0613  -8.3410  -7.5966  -0.3713   0.4479   1.2287   1.5829

          k = 0.0000 0.2309 0.0000 (  4005 PWs)   bands (ev):

   -23.7245 -11.3444 -10.0422  -8.4422   0.4338   1.2657   2.0524   2.4028

          k = 0.0000 0.3079 0.0000 (  3993 PWs)   bands (ev):

   -22.9193 -11.9519 -10.3602  -9.2538   1.5593   2.3968   3.2050   3.5271

          k = 0.0000 0.3849 0.0000 (  4010 PWs)   bands (ev):

   -21.8943 -13.9063  -9.9247  -9.1453   1.9967   3.0007   3.9204   4.6833

          k = 0.0000 0.4619 0.0000 (  4028 PWs)   bands (ev):

   -20.6596 -15.8028 -10.3971  -7.7918  -0.1117   4.7379   5.6941   5.7450

          k = 0.0000 0.5389 0.0000 (  4026 PWs)   bands (ev):

   -19.2366 -17.5663 -10.6392  -6.6365  -1.6729   5.6236   6.8538   7.7877

          k = 0.0667 0.1155 0.0000 (  3959 PWs)   bands (ev):

   -24.4192 -12.2061  -7.8900  -7.4542  -0.5323   0.2841   1.0640   1.4186

          k = 0.0667 0.1925 0.0000 (  3987 PWs)   bands (ev):

   -23.9556 -11.6297  -9.2543  -8.3214   0.1123   0.9391   1.7231   2.0753

          k = 0.0667 0.2694 0.0000 (  3991 PWs)   bands (ev):

   -23.2637 -10.9964 -10.7777  -9.2082   1.0785   1.9175   2.7117   3.0563

          k = 0.0667 0.3464 0.0000 (  3988 PWs)   bands (ev):

   -22.3485 -12.8987  -9.9751  -9.6738   2.3635   2.9415   3.3615   4.0291

          k = 0.0667 0.4234 0.0000 (  4014 PWs)   bands (ev):

   -21.2193 -14.8102 -10.5565  -8.3715   0.8775   3.9604   4.8749   5.6660

          k = 0.0667 0.5004 0.0000 (  4022 PWs)   bands (ev):

   -19.8882 -16.6363 -10.9162  -7.0397  -1.0234   5.8107   6.2465   6.8077

          k = 0.0667 0.5774 0.0000 (  4036 PWs)   bands (ev):

   -18.5525 -18.1417 -11.0392  -6.3210  -1.9406   6.1240   8.0180   8.1624

          k = 0.1333 0.2309 0.0000 (  4001 PWs)   bands (ev):

   -23.3788 -10.9189 -10.4204  -9.4675   0.9188   1.7560   2.5474   2.8948

          k = 0.1333 0.3079 0.0000 (  3986 PWs)   bands (ev):

   -22.5770 -11.9520 -10.5058  -9.9413   2.0455   2.8892   3.7011   3.7742

          k = 0.1333 0.3849 0.0000 (  4005 PWs)   bands (ev):

   -21.5576 -13.7370 -11.2532  -8.7340   1.7347   3.4881   4.3638   5.1830

          k = 0.1333 0.4619 0.0000 (  4037 PWs)   bands (ev):

   -20.3330 -15.5522 -11.7459  -7.3806  -0.2387   5.2375   6.1213   6.9862

          k = 0.1333 0.5389 0.0000 (  4049 PWs)   bands (ev):

   -18.9285 -17.2704 -11.9938  -6.2008  -1.7511   7.2374   7.5472   8.0959

          k = 0.2000 0.3464 0.0000 (  4015 PWs)   bands (ev):

   -21.6714 -12.9898 -11.9011  -8.8571   2.1028   3.3297   4.1818   5.0194

          k = 0.2000 0.4234 0.0000 (  4038 PWs)   bands (ev):

   -20.5568 -14.4417 -12.7936  -7.5699   0.3353   4.9235   5.7520   6.6650

          k = 0.2000 0.5004 0.0000 (  4054 PWs)   bands (ev):

   -19.2520 -16.1026 -13.2234  -6.2187  -1.3374   6.8099   7.4308   8.6358

          k = 0.2000 0.5774 0.0000 (  4053 PWs)   bands (ev):

   -17.9868 -17.5027 -13.3575  -5.4310  -2.2381   8.2099   8.8584   9.0117

          k = 0.2667 0.4619 0.0000 (  4073 PWs)   bands (ev):

   -19.3623 -15.1814 -14.1832  -6.2429  -1.1232   6.6524   7.1529   8.4475

          k = 0.2667 0.5389 0.0000 (  4083 PWs)   bands (ev):

   -18.0184 -16.4585 -14.7443  -4.9553  -2.4696   7.5215   8.6223  10.1038

          k = 0.3333 0.5774 0.0000 (  4071 PWs)   bands (ev):

   -16.8600 -16.8600 -15.7262  -3.6780  -3.6780   7.2486  10.3389  10.3391

     the Fermi energy is    -3.6357 ev

!    total energy              =     -22.74594055 Ry
     estimated scf accuracy    <          9.3E-09 Ry
     smearing contrib. (-TS)   =      -0.00003668 Ry
     internal energy E=F+TS    =     -22.74590388 Ry

     The total energy is F=E-TS. E is the sum of the following terms:
     one-electron contribution =    -438.44795814 Ry
     hartree contribution      =     219.97626676 Ry
     xc contribution           =      -7.28588410 Ry
     ewald contribution        =     203.01167160 Ry

     convergence has been achieved in   6 iterations

     Forces acting on atoms (cartesian axes, Ry/au):

     atom    1 type  1   force =     0.00000000    0.00000000    0.00000000
     atom    2 type  1   force =     0.00000000    0.00000000    0.00000000

     Total force =     0.000000     Total SCF correction =     0.000000


     Computing stress (Cartesian axis) and pressure

          total   stress  (Ry/bohr**3)                   (kbar)     P=       82.80
   0.00090722  -0.00000000  -0.00000000          133.46       -0.00       -0.00
  -0.00000000   0.00090722   0.00000000           -0.00      133.46        0.00
  -0.00000000   0.00000000  -0.00012575           -0.00        0.00      -18.50


     BFGS Geometry Optimization
     Energy error            =      0.0E+00
     Gradient error          =      0.0E+00
     Cell gradient error     =      9.1E-04


     number of scf cycles    =   1
     number of bfgs steps    =   0

     enthalpy new            =     -22.7459405548 Ry

     new trust radius        =       0.1176653204 bohr
     new conv_thr            =       0.0000000100 Ry

     new unit-cell volume =    703.74250 a.u.^3 (   104.28388 Ang^3 )
     density =      0.38250 g/cm^3

CELL_PARAMETERS (alat=  4.38000000)
   1.022680444  -0.000000000   0.000000000
  -0.511340222   0.885667244   0.000000000
   0.000000000   0.000000000   9.246575342

ATOMIC_POSITIONS (crystal)
C             0.3333333333        0.6666666667        0.5000000000
C             0.6666666667        0.3333333333        0.5000000000



     Writing output data file ./work/LiC438.save/
     NEW-OLD atomic charge density approx. for the potential

     negative rho (up, down):  4.761E-05 0.000E+00
     extrapolated charge    8.35029, renormalised to    8.00000

     total cpu time spent up to now is        1.5 secs

     Self-consistent Calculation

     iteration #  1     ecut=    50.00 Ry     beta= 0.70
     Davidson diagonalization with overlap
     c_bands:  1 eigenvalues not converged
     c_bands:  2 eigenvalues not converged
     c_bands:  2 eigenvalues not converged
     c_bands:  2 eigenvalues not converged
     c_bands:  4 eigenvalues not converged
     c_bands:  1 eigenvalues not converged
     c_bands:  2 eigenvalues not converged
     c_bands:  3 eigenvalues not converged
     c_bands:  2 eigenvalues not converged
     c_bands:  5 eigenvalues not converged
     c_bands:  2 eigenvalues not converged
     c_bands:  3 eigenvalues not converged
     c_bands:  2 eigenvalues not converged
     c_bands:  2 eigenvalues not converged
     c_bands:  2 eigenvalues not converged
     c_bands:  4 eigenvalues not converged
     c_bands:  4 eigenvalues not converged
     c_bands:  2 eigenvalues not converged
     c_bands:  4 eigenvalues not converged
     c_bands:  4 eigenvalues not converged
     c_bands:  5 eigenvalues not converged
     ethr =  1.00E-06,  avg # of iterations = 19.4

     negative rho (up, down):  1.326E-07 0.000E+00

     total cpu time spent up to now is        2.2 secs

     total energy              =     614.26848050 Ry
     estimated scf accuracy    <     356.82653956 Ry

     iteration #  2     ecut=    50.00 Ry     beta= 0.70
     Davidson diagonalization with overlap
     c_bands:  5 eigenvalues not converged
     c_bands:  4 eigenvalues not converged
     c_bands:  3 eigenvalues not converged
     c_bands:  3 eigenvalues not converged
     c_bands:  1 eigenvalues not converged
     c_bands:  1 eigenvalues not converged
     c_bands:  5 eigenvalues not converged
     c_bands:  5 eigenvalues not converged
     c_bands:  1 eigenvalues not converged
     c_bands:  5 eigenvalues not converged
     c_bands:  4 eigenvalues not converged
     c_bands:  4 eigenvalues not converged
     c_bands:  1 eigenvalues not converged
     ethr =  1.00E-02,  avg # of iterations = 33.5

     total cpu time spent up to now is        3.5 secs

     total energy              =    -140.04975008 Ry
     estimated scf accuracy    <     181.82561606 Ry

     iteration #  3     ecut=    50.00 Ry     beta= 0.70
     Davidson diagonalization with overlap
     c_bands:  2 eigenvalues not converged
     ethr =  1.00E-02,  avg # of iterations =  6.1

     total cpu time spent up to now is        3.7 secs

     total energy              =     -48.89732431 Ry
     estimated scf accuracy    <      62.89051640 Ry

     iteration #  4     ecut=    50.00 Ry     beta= 0.70
     Davidson diagonalization with overlap
     ethr =  1.00E-02,  avg # of iterations =  3.2

     total cpu time spent up to now is        3.8 secs

     total energy              =     -48.65679690 Ry
     estimated scf accuracy    <      14.17402660 Ry

     iteration #  5     ecut=    50.00 Ry     beta= 0.70
     Davidson diagonalization with overlap
     ethr =  1.00E-02,  avg # of iterations =  1.0

     total cpu time spent up to now is        3.9 secs

     total energy              =     -25.44495315 Ry
     estimated scf accuracy    <      13.85540364 Ry

     iteration #  6     ecut=    50.00 Ry     beta= 0.70
     Davidson diagonalization with overlap
     ethr =  1.00E-02,  avg # of iterations =  3.5

     total cpu time spent up to now is        4.1 secs

     total energy              =     -35.07750673 Ry
     estimated scf accuracy    <       1.55442653 Ry

     iteration #  7     ecut=    50.00 Ry     beta= 0.70
     Davidson diagonalization with overlap
     ethr =  1.00E-02,  avg # of iterations =  1.3

     total cpu time spent up to now is        4.2 secs

     total energy              =     -40.67201699 Ry
     estimated scf accuracy    <       6.53610670 Ry

     iteration #  8     ecut=    50.00 Ry     beta= 0.70
     Davidson diagonalization with overlap
     ethr =  1.00E-02,  avg # of iterations =  1.0

     total cpu time spent up to now is        4.3 secs

     total energy              =     -34.49704883 Ry
     estimated scf accuracy    <       9.49327832 Ry

     iteration #  9     ecut=    50.00 Ry     beta= 0.70
     Davidson diagonalization with overlap
     ethr =  1.00E-02,  avg # of iterations =  1.0

     negative rho (up, down):  9.288E-02 0.000E+00

     total cpu time spent up to now is        4.4 secs

     total energy              =     -22.63728763 Ry
     estimated scf accuracy    <       6.31295027 Ry

     iteration # 10     ecut=    50.00 Ry     beta= 0.70
     Davidson diagonalization with overlap
     ethr =  1.00E-02,  avg # of iterations = 11.8

     negative rho (up, down):  3.338E-05 0.000E+00

     total cpu time spent up to now is        4.8 secs

     total energy              =     -15.12007789 Ry
     estimated scf accuracy    <     205.36105135 Ry

     iteration # 11     ecut=    50.00 Ry     beta= 0.70
     Davidson diagonalization with overlap
     ethr =  1.00E-02,  avg # of iterations =  6.1

     negative rho (up, down):  4.627E-03 0.000E+00

     total cpu time spent up to now is        5.0 secs

     total energy              =     -21.95801076 Ry
     estimated scf accuracy    <       4.81268898 Ry

     iteration # 12     ecut=    50.00 Ry     beta= 0.70
     Davidson diagonalization with overlap
     ethr =  1.00E-02,  avg # of iterations =  1.9

     negative rho (up, down):  6.147E-02 0.000E+00

     total cpu time spent up to now is        5.1 secs

     total energy              =     -22.79725007 Ry
     estimated scf accuracy    <       3.94341285 Ry

     iteration # 13     ecut=    50.00 Ry     beta= 0.70
     Davidson diagonalization with overlap
     ethr =  1.00E-02,  avg # of iterations =  3.7

     negative rho (up, down):  3.999E-04 0.000E+00

     total cpu time spent up to now is        5.2 secs

     total energy              =     -18.42753200 Ry
     estimated scf accuracy    <      38.47873092 Ry

     iteration # 14     ecut=    50.00 Ry     beta= 0.70
     Davidson diagonalization with overlap
     ethr =  1.00E-02,  avg # of iterations =  5.8

     negative rho (up, down):  6.407E-03 0.000E+00

     total cpu time spent up to now is        5.4 secs

     total energy              =     -23.14355925 Ry
     estimated scf accuracy    <       0.01029907 Ry

     iteration # 15     ecut=    50.00 Ry     beta= 0.70
     Davidson diagonalization with overlap
     c_bands:  2 eigenvalues not converged
     c_bands:  1 eigenvalues not converged
     c_bands:  1 eigenvalues not converged
     c_bands:  1 eigenvalues not converged
     ethr =  1.29E-04,  avg # of iterations = 15.8

     negative rho (up, down):  1.201E-02 0.000E+00

     total cpu time spent up to now is        5.9 secs

     total energy              =     -23.48965277 Ry
     estimated scf accuracy    <       0.25234562 Ry

     iteration # 16     ecut=    50.00 Ry     beta= 0.70
     Davidson diagonalization with overlap
     ethr =  1.29E-04,  avg # of iterations =  6.0

     negative rho (up, down):  1.212E-02 0.000E+00

     total cpu time spent up to now is        6.0 secs

     total energy              =     -23.39969770 Ry
     estimated scf accuracy    <       0.39137822 Ry

     iteration # 17     ecut=    50.00 Ry     beta= 0.70
     Davidson diagonalization with overlap
     ethr =  1.29E-04,  avg # of iterations =  1.1

     negative rho (up, down):  1.495E-02 0.000E+00

     total cpu time spent up to now is        6.1 secs

     total energy              =     -23.75694331 Ry
     estimated scf accuracy    <       0.34020080 Ry

     iteration # 18     ecut=    50.00 Ry     beta= 0.70
     Davidson diagonalization with overlap
     c_bands:  1 eigenvalues not converged
     ethr =  1.29E-04,  avg # of iterations =  5.4

     negative rho (up, down):  1.477E-02 0.000E+00

     total cpu time spent up to now is        6.3 secs

     total energy              =     -23.50657665 Ry
     estimated scf accuracy    <       0.53718745 Ry

     iteration # 19     ecut=    50.00 Ry     beta= 0.70
     Davidson diagonalization with overlap
     ethr =  1.29E-04,  avg # of iterations =  1.9

     negative rho (up, down):  1.686E-02 0.000E+00

     total cpu time spent up to now is        6.4 secs

     total energy              =     -22.75283698 Ry
     estimated scf accuracy    <       0.40231556 Ry

     iteration # 20     ecut=    50.00 Ry     beta= 0.70
     Davidson diagonalization with overlap
     ethr =  1.29E-04,  avg # of iterations =  8.8

     negative rho (up, down):  2.450E-02 0.000E+00

     total cpu time spent up to now is        6.7 secs

     total energy              =     -22.85477697 Ry
     estimated scf accuracy    <       0.00493597 Ry

     iteration # 21     ecut=    50.00 Ry     beta= 0.70
     Davidson diagonalization with overlap
     ethr =  6.17E-05,  avg # of iterations =  8.7

     negative rho (up, down):  6.338E-03 0.000E+00

     total cpu time spent up to now is        6.9 secs

     total energy              =     -22.77302268 Ry
     estimated scf accuracy    <       0.05268164 Ry

     iteration # 22     ecut=    50.00 Ry     beta= 0.70
     Davidson diagonalization with overlap
     ethr =  6.17E-05,  avg # of iterations =  7.2

     negative rho (up, down):  6.764E-03 0.000E+00

     total cpu time spent up to now is        7.1 secs

     total energy              =     -22.76969839 Ry
     estimated scf accuracy    <       0.00521657 Ry

     iteration # 23     ecut=    50.00 Ry     beta= 0.70
     Davidson diagonalization with overlap
     ethr =  6.17E-05,  avg # of iterations = 10.6

     negative rho (up, down):  1.790E-03 0.000E+00

     total cpu time spent up to now is        7.4 secs

     total energy              =     -22.76865201 Ry
     estimated scf accuracy    <       0.00254516 Ry

     iteration # 24     ecut=    50.00 Ry     beta= 0.70
     Davidson diagonalization with overlap
     ethr =  3.18E-05,  avg # of iterations =  4.4

     negative rho (up, down):  6.288E-04 0.000E+00

     total cpu time spent up to now is        7.5 secs

     total energy              =     -22.76859287 Ry
     estimated scf accuracy    <       0.00040587 Ry

     iteration # 25     ecut=    50.00 Ry     beta= 0.70
     Davidson diagonalization with overlap
     c_bands:  1 eigenvalues not converged
     ethr =  5.07E-06,  avg # of iterations =  8.3

     negative rho (up, down):  1.455E-04 0.000E+00

     total cpu time spent up to now is        7.8 secs

     total energy              =     -22.76866611 Ry
     estimated scf accuracy    <       0.00012485 Ry

     iteration # 26     ecut=    50.00 Ry     beta= 0.70
     Davidson diagonalization with overlap
     ethr =  1.56E-06,  avg # of iterations =  6.3

     negative rho (up, down):  4.377E-05 0.000E+00

     total cpu time spent up to now is        8.0 secs

     total energy              =     -22.76868414 Ry
     estimated scf accuracy    <       0.00000023 Ry

     iteration # 27     ecut=    50.00 Ry     beta= 0.70
     Davidson diagonalization with overlap
     ethr =  2.91E-09,  avg # of iterations =  4.8

     negative rho (up, down):  1.715E-05 0.000E+00

     total cpu time spent up to now is        8.1 secs

     total energy              =     -22.76868435 Ry
     estimated scf accuracy    <       0.00000004 Ry

     iteration # 28     ecut=    50.00 Ry     beta= 0.70
     Davidson diagonalization with overlap
     ethr =  4.87E-10,  avg # of iterations =  3.5

     total cpu time spent up to now is        8.3 secs

     End of self-consistent calculation

          k = 0.0000 0.0000 0.0000 (  3943 PWs)   bands (ev):

   -24.4049 -12.3457  -6.8765  -6.8765  -1.0072  -0.2248   0.5243   0.8837

          k = 0.0000 0.0753 0.0000 (  3949 PWs)   bands (ev):

   -24.2926 -12.2078  -7.3239  -7.1290  -0.8532  -0.0680   0.6817   1.0408

          k = 0.0000 0.1505 0.0000 (  3965 PWs)   bands (ev):

   -23.9563 -11.7954  -8.5244  -7.7661  -0.3908   0.4020   1.1543   1.5117

          k = 0.0000 0.2258 0.0000 (  4005 PWs)   bands (ev):

   -23.3984 -11.1162 -10.1721  -8.5618   0.3795   1.1832   1.9419   2.2946

          k = 0.0000 0.3011 0.0000 (  3993 PWs)   bands (ev):

   -22.6221 -12.0175 -10.1843  -9.3268   1.4563   2.2601   3.0438   3.3388

          k = 0.0000 0.3764 0.0000 (  4010 PWs)   bands (ev):

   -21.6349 -13.9034  -9.9603  -9.0361   1.5146   2.8339   3.7122   4.4505

          k = 0.0000 0.4516 0.0000 (  4028 PWs)   bands (ev):

   -20.4490 -15.7295 -10.4071  -7.7612  -0.4607   4.4553   4.8718   5.4105

          k = 0.0000 0.5269 0.0000 (  4026 PWs)   bands (ev):

   -19.1028 -17.4043 -10.6360  -6.6810  -1.9160   4.6990   6.5075   7.4072

          k = 0.0652 0.1129 0.0000 (  3959 PWs)   bands (ev):

   -24.0683 -11.9328  -8.0890  -7.6315  -0.5449   0.2454   0.9968   1.3548

          k = 0.0652 0.1882 0.0000 (  3987 PWs)   bands (ev):

   -23.6212 -11.3864  -9.4149  -8.4484   0.0719   0.8713   1.6270   1.9820

          k = 0.0652 0.2635 0.0000 (  3991 PWs)   bands (ev):

   -22.9541 -11.0984 -10.5794  -9.2884   0.9963   1.8057   2.5722   2.9178

          k = 0.0652 0.3387 0.0000 (  3988 PWs)   bands (ev):

   -22.0720 -12.9336 -10.0161  -9.5351   2.2252   2.4562   3.1130   3.8311

          k = 0.0652 0.4140 0.0000 (  4014 PWs)   bands (ev):

   -20.9857 -14.7757 -10.5680  -8.3060   0.4579   3.7502   4.6277   5.3112

          k = 0.0652 0.4893 0.0000 (  4022 PWs)   bands (ev):

   -19.7119 -16.5275 -10.9095  -7.0553  -1.3177   5.1866   5.6398   6.4720

          k = 0.0652 0.5645 0.0000 (  4036 PWs)   bands (ev):

   -18.5343 -17.8691 -11.0265  -6.3862  -2.1699   5.1822   7.6199   7.7678

          k = 0.1304 0.2258 0.0000 (  4001 PWs)   bands (ev):

   -23.0650 -10.7131 -10.5586  -9.5275   0.8433   1.6518   2.4151   2.7646

          k = 0.1304 0.3011 0.0000 (  3986 PWs)   bands (ev):

   -22.2922 -12.0376 -10.5200  -9.7878   1.9209   2.7287   3.1582   3.5180

          k = 0.1304 0.3764 0.0000 (  4005 PWs)   bands (ev):

   -21.3106 -13.7511 -11.2428  -8.6469   1.2417   3.3002   4.1401   4.9344

          k = 0.1304 0.4516 0.0000 (  4037 PWs)   bands (ev):

   -20.1350 -15.4932 -11.7185  -7.3720  -0.6028   4.9708   5.8166   6.5706

          k = 0.1304 0.5269 0.0000 (  4049 PWs)   bands (ev):

   -18.8078 -17.1217 -11.9574  -6.2678  -2.0123   6.4970   6.9583   7.6883

          k = 0.1956 0.3387 0.0000 (  4015 PWs)   bands (ev):

   -21.4200 -13.0702 -11.8335  -8.7628   1.5723   3.1486   3.9684   4.7782

          k = 0.1956 0.4140 0.0000 (  4038 PWs)   bands (ev):

   -20.3487 -14.4562 -12.7060  -7.5481  -0.0864   4.6718   5.4651   6.3508

          k = 0.1956 0.4893 0.0000 (  4054 PWs)   bands (ev):

   -19.1018 -16.0301 -13.1374  -6.2777  -1.6525   6.4721   7.0563   8.2143

          k = 0.1956 0.5645 0.0000 (  4053 PWs)   bands (ev):

   -17.9768 -17.2808 -13.2713  -5.5422  -2.4916   7.7886   8.2815   8.4130

          k = 0.2608 0.4516 0.0000 (  4073 PWs)   bands (ev):

   -19.2046 -15.2190 -13.9936  -6.2978  -1.4664   6.3225   6.7964   8.0480

          k = 0.2608 0.5269 0.0000 (  4083 PWs)   bands (ev):

   -17.9377 -16.3989 -14.5598  -5.0879  -2.7341   7.1654   8.1933   9.6402

          k = 0.3259 0.5645 0.0000 (  4071 PWs)   bands (ev):

   -16.8682 -16.8682 -15.3792  -3.8816  -3.8816   6.9231   9.7446   9.7447

     the Fermi energy is    -3.8816 ev

!    total energy              =     -22.76868434 Ry
     estimated scf accuracy    <          2.2E-09 Ry
     smearing contrib. (-TS)   =      -0.00005015 Ry
     internal energy E=F+TS    =     -22.76863419 Ry

     The total energy is F=E-TS. E is the sum of the following terms:
     one-electron contribution =    -418.96789504 Ry
     hartree contribution      =     210.18814839 Ry
     xc contribution           =      -7.18395852 Ry
     ewald contribution        =     193.19507099 Ry

     convergence has been achieved in  28 iterations

     Forces acting on atoms (cartesian axes, Ry/au):

     atom    1 type  1   force =     0.00000000    0.00000000    0.00000000
     atom    2 type  1   force =     0.00000000    0.00000000    0.00000000

     Total force =     0.000000     Total SCF correction =     0.000000


     Computing stress (Cartesian axis) and pressure

          total   stress  (Ry/bohr**3)                   (kbar)     P=       38.35
   0.00045484   0.00000000   0.00000000           66.91        0.00        0.00
   0.00000000   0.00045484  -0.00000000            0.00       66.91       -0.00
   0.00000000  -0.00000000  -0.00012765            0.00       -0.00      -18.78

     Energy error            =      2.3E-02
     Gradient error          =      0.0E+00
     Cell gradient error     =      4.5E-04


     number of scf cycles    =   2
     number of bfgs steps    =   1

     enthalpy old            =     -22.7459405548 Ry
     enthalpy new            =     -22.7686843386 Ry

     CASE: enthalpy_new < enthalpy_old

     new trust radius        =       0.1238121575 bohr
     new conv_thr            =            1.0E-10 Ry

     new unit-cell volume =    736.97080 a.u.^3 (   109.20781 Ang^3 )
     density =      0.36525 g/cm^3

CELL_PARAMETERS (alat=  4.38000000)
   1.046545715   0.000000000   0.000000000
  -0.523272857   0.906335175   0.000000000
   0.000000000   0.000000000   9.246575342

ATOMIC_POSITIONS (crystal)
C             0.3333333333        0.6666666667        0.5000000000
C             0.6666666667        0.3333333333        0.5000000000



     Writing output data file ./work/LiC438.save/
     NEW-OLD atomic charge density approx. for the potential

     negative rho (up, down):  6.208E-05 0.000E+00
     extrapolated charge    8.36007, renormalised to    8.00000

     total cpu time spent up to now is        8.4 secs

     Self-consistent Calculation

     iteration #  1     ecut=    50.00 Ry     beta= 0.70
     Davidson diagonalization with overlap
     c_bands:  1 eigenvalues not converged
     c_bands:  1 eigenvalues not converged
     c_bands:  2 eigenvalues not converged
     c_bands:  4 eigenvalues not converged
     c_bands:  1 eigenvalues not converged
     c_bands:  2 eigenvalues not converged
     c_bands:  3 eigenvalues not converged
     c_bands:  2 eigenvalues not converged
     c_bands:  2 eigenvalues not converged
     c_bands:  2 eigenvalues not converged
     c_bands:  1 eigenvalues not converged
     c_bands:  2 eigenvalues not converged
     c_bands:  2 eigenvalues not converged
     c_bands:  3 eigenvalues not converged
     c_bands:  3 eigenvalues not converged
     c_bands:  3 eigenvalues not converged
     c_bands:  3 eigenvalues not converged
     c_bands:  3 eigenvalues not converged
     c_bands:  4 eigenvalues not converged
     c_bands:  4 eigenvalues not converged
     c_bands:  5 eigenvalues not converged
     ethr =  1.00E-06,  avg # of iterations = 19.6

     negative rho (up, down):  2.272E-07 0.000E+00

     total cpu time spent up to now is        9.1 secs

     total energy              =     584.79360894 Ry
     estimated scf accuracy    <     340.24721936 Ry

     iteration #  2     ecut=    50.00 Ry     beta= 0.70
     Davidson diagonalization with overlap
     c_bands:  5 eigenvalues not converged
     c_bands:  5 eigenvalues not converged
     c_bands:  1 eigenvalues not converged
     c_bands:  1 eigenvalues not converged
     c_bands:  1 eigenvalues not converged
     c_bands:  1 eigenvalues not converged
     c_bands:  1 eigenvalues not converged
     c_bands:  4 eigenvalues not converged
     c_bands:  5 eigenvalues not converged
     c_bands:  1 eigenvalues not converged
     c_bands:  3 eigenvalues not converged
     ethr =  1.00E-02,  avg # of iterations = 34.4

     negative rho (up, down):  2.630E-08 0.000E+00

     total cpu time spent up to now is       10.4 secs

     total energy              =    -134.59934711 Ry
     estimated scf accuracy    <     173.56967936 Ry

     iteration #  3     ecut=    50.00 Ry     beta= 0.70
     Davidson diagonalization with overlap
     c_bands:  2 eigenvalues not converged
     c_bands:  1 eigenvalues not converged
     ethr =  1.00E-02,  avg # of iterations =  5.7

     total cpu time spent up to now is       10.6 secs

     total energy              =     -49.74121394 Ry
     estimated scf accuracy    <      59.98545489 Ry

     iteration #  4     ecut=    50.00 Ry     beta= 0.70
     Davidson diagonalization with overlap
     ethr =  1.00E-02,  avg # of iterations =  4.1

     negative rho (up, down):  2.059E-08 0.000E+00

     total cpu time spent up to now is       10.7 secs

     total energy              =     -48.74936300 Ry
     estimated scf accuracy    <      14.63580900 Ry

     iteration #  5     ecut=    50.00 Ry     beta= 0.70
     Davidson diagonalization with overlap
     ethr =  1.00E-02,  avg # of iterations =  1.3

     negative rho (up, down):  3.006E-07 0.000E+00

     total cpu time spent up to now is       10.8 secs

     total energy              =     -26.87483779 Ry
     estimated scf accuracy    <      13.98767752 Ry

     iteration #  6     ecut=    50.00 Ry     beta= 0.70
     Davidson diagonalization with overlap
     ethr =  1.00E-02,  avg # of iterations =  4.1

     total cpu time spent up to now is       11.0 secs

     total energy              =     -33.97918235 Ry
     estimated scf accuracy    <       2.33266408 Ry

     iteration #  7     ecut=    50.00 Ry     beta= 0.70
     Davidson diagonalization with overlap
     ethr =  1.00E-02,  avg # of iterations =  1.1

     negative rho (up, down):  4.470E-08 0.000E+00

     total cpu time spent up to now is       11.1 secs

     total energy              =     -26.96996664 Ry
     estimated scf accuracy    <       5.95533705 Ry

     iteration #  8     ecut=    50.00 Ry     beta= 0.70
     Davidson diagonalization with overlap
     ethr =  1.00E-02,  avg # of iterations =  1.3

     negative rho (up, down):  1.147E-02 0.000E+00

     total cpu time spent up to now is       11.2 secs

     total energy              =     -25.27766116 Ry
     estimated scf accuracy    <       2.25830702 Ry

     iteration #  9     ecut=    50.00 Ry     beta= 0.70
     Davidson diagonalization with overlap
     ethr =  1.00E-02,  avg # of iterations =  1.1

     negative rho (up, down):  8.959E-02 0.000E+00

     total cpu time spent up to now is       11.3 secs

     total energy              =     -22.78612760 Ry
     estimated scf accuracy    <       1.35699139 Ry

     iteration # 10     ecut=    50.00 Ry     beta= 0.70
     Davidson diagonalization with overlap
     ethr =  1.00E-02,  avg # of iterations = 10.3

     negative rho (up, down):  3.001E-07 0.000E+00

     total cpu time spent up to now is       11.6 secs

     total energy              =     -16.04101644 Ry
     estimated scf accuracy    <     193.74279812 Ry

     iteration # 11     ecut=    50.00 Ry     beta= 0.70
     Davidson diagonalization with overlap
     ethr =  1.00E-02,  avg # of iterations =  5.6

     negative rho (up, down):  1.063E-02 0.000E+00

     total cpu time spent up to now is       11.8 secs

     total energy              =     -22.08185248 Ry
     estimated scf accuracy    <       3.45648465 Ry

     iteration # 12     ecut=    50.00 Ry     beta= 0.70
     Davidson diagonalization with overlap
     ethr =  1.00E-02,  avg # of iterations =  1.3

     negative rho (up, down):  9.734E-03 0.000E+00

     total cpu time spent up to now is       11.9 secs

     total energy              =     -22.23451721 Ry
     estimated scf accuracy    <       3.69441000 Ry

     iteration # 13     ecut=    50.00 Ry     beta= 0.70
     Davidson diagonalization with overlap
     ethr =  1.00E-02,  avg # of iterations =  1.3

     negative rho (up, down):  1.399E-03 0.000E+00

     total cpu time spent up to now is       12.0 secs

     total energy              =     -20.19011568 Ry
     estimated scf accuracy    <       3.99406904 Ry

     iteration # 14     ecut=    50.00 Ry     beta= 0.70
     Davidson diagonalization with overlap
     ethr =  1.00E-02,  avg # of iterations =  6.8

     negative rho (up, down):  6.627E-03 0.000E+00

     total cpu time spent up to now is       12.2 secs

     total energy              =     -24.99771464 Ry
     estimated scf accuracy    <       0.10941450 Ry

     iteration # 15     ecut=    50.00 Ry     beta= 0.70
     Davidson diagonalization with overlap
     c_bands:  1 eigenvalues not converged
     c_bands:  1 eigenvalues not converged
     c_bands:  1 eigenvalues not converged
     c_bands:  1 eigenvalues not converged
     c_bands:  1 eigenvalues not converged
     ethr =  1.37E-03,  avg # of iterations = 15.1

     negative rho (up, down):  8.379E-03 0.000E+00

     total cpu time spent up to now is       12.6 secs

     total energy              =     -24.25002296 Ry
     estimated scf accuracy    <       1.24408789 Ry

     iteration # 16     ecut=    50.00 Ry     beta= 0.70
     Davidson diagonalization with overlap
     ethr =  1.37E-03,  avg # of iterations =  1.9

     negative rho (up, down):  9.238E-03 0.000E+00

     total cpu time spent up to now is       12.7 secs

     total energy              =     -25.18150046 Ry
     estimated scf accuracy    <       0.79271970 Ry

     iteration # 17     ecut=    50.00 Ry     beta= 0.70
     Davidson diagonalization with overlap
     ethr =  1.37E-03,  avg # of iterations =  1.9

     negative rho (up, down):  8.668E-03 0.000E+00

     total cpu time spent up to now is       12.8 secs

     total energy              =     -23.65655341 Ry
     estimated scf accuracy    <       1.29343245 Ry

     iteration # 18     ecut=    50.00 Ry     beta= 0.70
     Davidson diagonalization with overlap
     ethr =  1.37E-03,  avg # of iterations =  1.9

     negative rho (up, down):  1.268E-02 0.000E+00

     total cpu time spent up to now is       12.9 secs

     total energy              =     -23.39426021 Ry
     estimated scf accuracy    <       0.48205401 Ry

     iteration # 19     ecut=    50.00 Ry     beta= 0.70
     Davidson diagonalization with overlap
     ethr =  1.37E-03,  avg # of iterations =  1.4

     negative rho (up, down):  3.126E-02 0.000E+00

     total cpu time spent up to now is       13.1 secs

     total energy              =     -22.75660711 Ry
     estimated scf accuracy    <       0.33630518 Ry

     iteration # 20     ecut=    50.00 Ry     beta= 0.70
     Davidson diagonalization with overlap
     ethr =  1.37E-03,  avg # of iterations =  9.4

     negative rho (up, down):  2.797E-02 0.000E+00

     total cpu time spent up to now is       13.3 secs

     total energy              =     -22.78234811 Ry
     estimated scf accuracy    <       0.00824623 Ry

     iteration # 21     ecut=    50.00 Ry     beta= 0.70
     Davidson diagonalization with overlap
     ethr =  1.03E-04,  avg # of iterations =  5.3

     negative rho (up, down):  5.464E-03 0.000E+00

     total cpu time spent up to now is       13.5 secs

     total energy              =     -22.78669185 Ry
     estimated scf accuracy    <       0.00941508 Ry

     iteration # 22     ecut=    50.00 Ry     beta= 0.70
     Davidson diagonalization with overlap
     ethr =  1.03E-04,  avg # of iterations =  2.8

     negative rho (up, down):  1.140E-02 0.000E+00

     total cpu time spent up to now is       13.6 secs

     total energy              =     -22.79213019 Ry
     estimated scf accuracy    <       0.02382920 Ry

     iteration # 23     ecut=    50.00 Ry     beta= 0.70
     Davidson diagonalization with overlap
     ethr =  1.03E-04,  avg # of iterations =  2.9

     negative rho (up, down):  3.527E-03 0.000E+00

     total cpu time spent up to now is       13.7 secs

     total energy              =     -22.78397474 Ry
     estimated scf accuracy    <       0.03423252 Ry

     iteration # 24     ecut=    50.00 Ry     beta= 0.70
     Davidson diagonalization with overlap
     ethr =  1.03E-04,  avg # of iterations =  3.0

     negative rho (up, down):  4.184E-03 0.000E+00

     total cpu time spent up to now is       13.9 secs

     total energy              =     -22.77463599 Ry
     estimated scf accuracy    <       0.01672424 Ry

     iteration # 25     ecut=    50.00 Ry     beta= 0.70
     Davidson diagonalization with overlap
     ethr =  1.03E-04,  avg # of iterations =  6.0

     negative rho (up, down):  1.676E-03 0.000E+00

     total cpu time spent up to now is       14.1 secs

     total energy              =     -22.77814679 Ry
     estimated scf accuracy    <       0.00068040 Ry

     iteration # 26     ecut=    50.00 Ry     beta= 0.70
     Davidson diagonalization with overlap
     c_bands:  1 eigenvalues not converged
     c_bands:  1 eigenvalues not converged
     ethr =  8.50E-06,  avg # of iterations = 10.5

     negative rho (up, down):  9.116E-04 0.000E+00

     total cpu time spent up to now is       14.4 secs

     total energy              =     -22.77654172 Ry
     estimated scf accuracy    <       0.00431761 Ry

     iteration # 27     ecut=    50.00 Ry     beta= 0.70
     Davidson diagonalization with overlap
     ethr =  8.50E-06,  avg # of iterations =  7.2

     negative rho (up, down):  2.023E-04 0.000E+00

     total cpu time spent up to now is       14.6 secs

     total energy              =     -22.77701642 Ry
     estimated scf accuracy    <       0.00000399 Ry

     iteration # 28     ecut=    50.00 Ry     beta= 0.70
     Davidson diagonalization with overlap
     ethr =  4.98E-08,  avg # of iterations =  5.7

     negative rho (up, down):  6.729E-06 0.000E+00

     total cpu time spent up to now is       14.8 secs

     total energy              =     -22.77701831 Ry
     estimated scf accuracy    <       0.00000105 Ry

     iteration # 29     ecut=    50.00 Ry     beta= 0.70
     Davidson diagonalization with overlap
     ethr =  1.31E-08,  avg # of iterations =  6.5

     negative rho (up, down):  4.672E-06 0.000E+00

     total cpu time spent up to now is       15.0 secs

     total energy              =     -22.77701846 Ry
     estimated scf accuracy    <          9.8E-09 Ry

     iteration # 30     ecut=    50.00 Ry     beta= 0.70
     Davidson diagonalization with overlap
     ethr =  1.23E-10,  avg # of iterations =  3.1

     total cpu time spent up to now is       15.1 secs

     total energy              =     -22.77701846 Ry
     estimated scf accuracy    <          5.1E-10 Ry

     iteration # 31     ecut=    50.00 Ry     beta= 0.70
     Davidson diagonalization with overlap
     ethr =  6.42E-12,  avg # of iterations =  3.4

     total cpu time spent up to now is       15.2 secs

     End of self-consistent calculation

          k = 0.0000 0.0000 0.0000 (  3943 PWs)   bands (ev):

   -24.0578 -12.0693  -7.1157  -7.1157  -0.9922  -0.2096   0.5724   0.9304

          k =-0.0000 0.0736 0.0000 (  3949 PWs)   bands (ev):

   -23.9496 -11.9388  -7.5518  -7.3507  -0.8450  -0.0601   0.7228   1.0802

          k =-0.0000 0.1471 0.0000 (  3965 PWs)   bands (ev):

   -23.6261 -11.5486  -8.7204  -7.9463  -0.4031   0.3880   1.1740   1.5294

          k =-0.0000 0.2207 0.0000 (  4005 PWs)   bands (ev):

   -23.0894 -10.9066 -10.3166  -8.6938   0.3328   1.1325   1.9258   2.2758

          k =-0.0000 0.2942 0.0000 (  3993 PWs)   bands (ev):

   -22.3429 -12.0982 -10.0263  -9.4134   1.3610   2.1487   2.9772   2.9966

          k =-0.0000 0.3678 0.0000 (  4010 PWs)   bands (ev):

   -21.3950 -13.9149 -10.0102  -8.9439   1.0180   2.6744   3.5378   4.0603

          k =-0.0000 0.4413 0.0000 (  4028 PWs)   bands (ev):

   -20.2607 -15.6680 -10.4320  -7.7465  -0.8240   3.8339   4.3316   5.1577

          k =-0.0000 0.5149 0.0000 (  4026 PWs)   bands (ev):

   -19.0004 -17.2451 -10.6479  -6.7397  -2.1753   3.7625   6.1757   7.0541

          k = 0.0637 0.1103 0.0000 (  3959 PWs)   bands (ev):

   -23.7338 -11.6786  -8.3000  -7.8192  -0.5504   0.2387   1.0236   1.3798

          k = 0.0637 0.1839 0.0000 (  3987 PWs)   bands (ev):

   -23.3037 -11.1619  -9.5896  -8.5870   0.0389   0.8354   1.6253   1.9780

          k = 0.0637 0.2574 0.0000 (  3991 PWs)   bands (ev):

   -22.6620 -11.2161 -10.3993  -9.3810   0.9217   1.7251   2.5276   2.8682

          k = 0.0637 0.3310 0.0000 (  3988 PWs)   bands (ev):

   -21.8142 -12.9843 -10.0700  -9.4139   1.9064   2.0950   2.9484   3.7277

          k = 0.0637 0.4046 0.0000 (  4014 PWs)   bands (ev):

   -20.7729 -14.7553 -10.5931  -8.2570   0.0252   3.5458   4.4117   4.4535

          k = 0.0637 0.4781 0.0000 (  4022 PWs)   bands (ev):

   -19.5609 -16.4282 -10.9167  -7.0859  -1.6270   4.2753   5.3197   6.1651

          k = 0.0637 0.5517 0.0000 (  4036 PWs)   bands (ev):

   -18.5232 -17.6244 -11.0278  -6.4650  -2.4157   4.2311   7.2309   7.3849

          k = 0.1274 0.2207 0.0000 (  4001 PWs)   bands (ev):

   -22.7687 -10.7116 -10.5257  -9.6005   0.7755   1.5792   2.3779   2.7242

          k = 0.1274 0.2942 0.0000 (  3986 PWs)   bands (ev):

   -22.0256 -12.1402 -10.5457  -9.6519   1.8044   2.4782   2.6484   3.4307

          k = 0.1274 0.3678 0.0000 (  4005 PWs)   bands (ev):

   -21.0833 -13.7825 -11.2428  -8.5767   0.7381   3.1208   3.9467   4.7812

          k = 0.1274 0.4413 0.0000 (  4037 PWs)   bands (ev):

   -19.9596 -15.4492 -11.7015  -7.3789  -0.9796   4.7110   5.5389   5.6532

          k = 0.1274 0.5149 0.0000 (  4049 PWs)   bands (ev):

   -18.7170 -16.9809 -11.9319  -6.3487  -2.2885   5.5305   6.5920   7.2988

          k = 0.1911 0.3310 0.0000 (  4015 PWs)   bands (ev):

   -21.1882 -13.1651 -11.7792  -8.6854   1.0337   2.9762   3.7841   4.6333

          k = 0.1911 0.4046 0.0000 (  4038 PWs)   bands (ev):

   -20.1620 -14.4902 -12.6249  -7.5422  -0.5181   4.4291   5.2033   6.1333

          k = 0.1911 0.4781 0.0000 (  4054 PWs)   bands (ev):

   -18.9766 -15.9761 -13.0557  -6.3512  -1.9799   6.1420   6.6959   7.3519

          k = 0.1911 0.5517 0.0000 (  4053 PWs)   bands (ev):

   -17.9750 -17.0942 -13.1893  -5.6664  -2.7589   7.2779   7.3725   7.9722

          k = 0.2548 0.4413 0.0000 (  4073 PWs)   bands (ev):

   -19.0707 -15.2694 -13.8150  -6.3674  -1.8201   6.0008   6.4519   7.7378

          k = 0.2548 0.5149 0.0000 (  4083 PWs)   bands (ev):

   -17.8828 -16.3653 -14.3705  -5.2335  -3.0103   6.8109   7.7677   9.0166

          k = 0.3185 0.5517 0.0000 (  4071 PWs)   bands (ev):

   -16.8868 -16.8868 -15.0585  -4.0971  -4.0971   6.5973   9.1165   9.1166

     the Fermi energy is    -4.0971 ev

!    total energy              =     -22.77701846 Ry
     estimated scf accuracy    <          9.9E-11 Ry
     smearing contrib. (-TS)   =      -0.00005015 Ry
     internal energy E=F+TS    =     -22.77696831 Ry

     The total energy is F=E-TS. E is the sum of the following terms:
     one-electron contribution =    -399.83429722 Ry
     hartree contribution      =     200.56992854 Ry
     xc contribution           =      -7.08069067 Ry
     ewald contribution        =     183.56809104 Ry

     convergence has been achieved in  31 iterations

     Forces acting on atoms (cartesian axes, Ry/au):

     atom    1 type  1   force =     0.00000000    0.00000000    0.00000000
     atom    2 type  1   force =     0.00000000    0.00000000    0.00000000

     Total force =     0.000000     Total SCF correction =     0.000000


     Computing stress (Cartesian axis) and pressure

          total   stress  (Ry/bohr**3)                   (kbar)     P=       -0.30
   0.00006146   0.00000000   0.00000000            9.04        0.00        0.00
   0.00000000   0.00006146  -0.00000000            0.00        9.04       -0.00
   0.00000000  -0.00000000  -0.00012898            0.00       -0.00      -18.97

     Energy error            =      8.3E-03
     Gradient error          =      0.0E+00
     Cell gradient error     =      6.1E-05


     number of scf cycles    =   3
     number of bfgs steps    =   2

     enthalpy old            =     -22.7686843386 Ry
     enthalpy new            =     -22.7770184641 Ry

     CASE: enthalpy_new < enthalpy_old

     new trust radius        =       0.0198658706 bohr
     new conv_thr            =            1.0E-10 Ry

     new unit-cell volume =    742.37370 a.u.^3 (   110.00843 Ang^3 )
     density =      0.36259 g/cm^3

CELL_PARAMETERS (alat=  4.38000000)
   1.050374938   0.000000000   0.000000000
  -0.525187469   0.909651380   0.000000000
   0.000000000   0.000000000   9.246575342

ATOMIC_POSITIONS (crystal)
C             0.3333333333        0.6666666667        0.5000000000
C             0.6666666667        0.3333333333        0.5000000000



     Writing output data file ./work/LiC438.save/
     NEW-OLD atomic charge density approx. for the potential

     negative rho (up, down):  3.154E-06 0.000E+00
     extrapolated charge    8.05812, renormalised to    8.00000

     total cpu time spent up to now is       15.3 secs

     Self-consistent Calculation

     iteration #  1     ecut=    50.00 Ry     beta= 0.70
     Davidson diagonalization with overlap
     c_bands:  1 eigenvalues not converged
     c_bands:  1 eigenvalues not converged
     c_bands:  1 eigenvalues not converged
     c_bands:  1 eigenvalues not converged
     c_bands:  1 eigenvalues not converged
     c_bands:  1 eigenvalues not converged
     c_bands:  1 eigenvalues not converged
     c_bands:  1 eigenvalues not converged
     ethr =  1.00E-06,  avg # of iterations = 15.3

     total cpu time spent up to now is       15.7 secs

     total energy              =     -22.48279617 Ry
     estimated scf accuracy    <       0.14628280 Ry

     iteration #  2     ecut=    50.00 Ry     beta= 0.70
     Davidson diagonalization with overlap
     ethr =  1.83E-03,  avg # of iterations =  8.1

     total cpu time spent up to now is       15.9 secs

     total energy              =     -22.81726783 Ry
     estimated scf accuracy    <       0.08760892 Ry

     iteration #  3     ecut=    50.00 Ry     beta= 0.70
     Davidson diagonalization with overlap
     ethr =  1.10E-03,  avg # of iterations =  2.6

     total cpu time spent up to now is       16.0 secs

     total energy              =     -22.79585712 Ry
     estimated scf accuracy    <       0.02692524 Ry

     iteration #  4     ecut=    50.00 Ry     beta= 0.70
     Davidson diagonalization with overlap
     ethr =  3.37E-04,  avg # of iterations =  3.1

     total cpu time spent up to now is       16.2 secs

     total energy              =     -22.78381633 Ry
     estimated scf accuracy    <       0.01223877 Ry

     iteration #  5     ecut=    50.00 Ry     beta= 0.70
     Davidson diagonalization with overlap
     ethr =  1.53E-04,  avg # of iterations =  3.9

     total cpu time spent up to now is       16.3 secs

     total energy              =     -22.78205882 Ry
     estimated scf accuracy    <       0.00455113 Ry

     iteration #  6     ecut=    50.00 Ry     beta= 0.70
     Davidson diagonalization with overlap
     ethr =  5.69E-05,  avg # of iterations =  3.4

     total cpu time spent up to now is       16.4 secs

     total energy              =     -22.77721631 Ry
     estimated scf accuracy    <       0.00334672 Ry

     iteration #  7     ecut=    50.00 Ry     beta= 0.70
     Davidson diagonalization with overlap
     ethr =  4.18E-05,  avg # of iterations =  7.6

     total cpu time spent up to now is       16.6 secs

     total energy              =     -22.77747294 Ry
     estimated scf accuracy    <       0.00013666 Ry

     iteration #  8     ecut=    50.00 Ry     beta= 0.70
     Davidson diagonalization with overlap
     c_bands:  1 eigenvalues not converged
     ethr =  1.71E-06,  avg # of iterations =  5.7

     total cpu time spent up to now is       16.8 secs

     total energy              =     -22.77721204 Ry
     estimated scf accuracy    <       0.00025052 Ry

     iteration #  9     ecut=    50.00 Ry     beta= 0.70
     Davidson diagonalization with overlap
     c_bands:  1 eigenvalues not converged
     ethr =  1.71E-06,  avg # of iterations =  7.6

     total cpu time spent up to now is       17.0 secs

     total energy              =     -22.77719412 Ry
     estimated scf accuracy    <       0.00003603 Ry

     iteration # 10     ecut=    50.00 Ry     beta= 0.70
     Davidson diagonalization with overlap
     ethr =  4.50E-07,  avg # of iterations =  3.1

     total cpu time spent up to now is       17.1 secs

     total energy              =     -22.77719806 Ry
     estimated scf accuracy    <       0.00000182 Ry

     iteration # 11     ecut=    50.00 Ry     beta= 0.70
     Davidson diagonalization with overlap
     ethr =  2.27E-08,  avg # of iterations =  4.8

     total cpu time spent up to now is       17.3 secs

     total energy              =     -22.77719819 Ry
     estimated scf accuracy    <       0.00000002 Ry

     iteration # 12     ecut=    50.00 Ry     beta= 0.70
     Davidson diagonalization with overlap
     ethr =  2.50E-10,  avg # of iterations =  3.3

     total cpu time spent up to now is       17.4 secs

     total energy              =     -22.77719820 Ry
     estimated scf accuracy    <       0.00000001 Ry

     iteration # 13     ecut=    50.00 Ry     beta= 0.70
     Davidson diagonalization with overlap
     ethr =  1.40E-10,  avg # of iterations =  1.0

     total cpu time spent up to now is       17.5 secs

     total energy              =     -22.77719820 Ry
     estimated scf accuracy    <          7.0E-09 Ry

     iteration # 14     ecut=    50.00 Ry     beta= 0.70
     Davidson diagonalization with overlap
     ethr =  8.70E-11,  avg # of iterations =  1.0

     total cpu time spent up to now is       17.7 secs

     total energy              =     -22.77719820 Ry
     estimated scf accuracy    <          2.0E-09 Ry

     iteration # 15     ecut=    50.00 Ry     beta= 0.70
     Davidson diagonalization with overlap
     ethr =  2.47E-11,  avg # of iterations =  1.4

     total cpu time spent up to now is       17.8 secs

     End of self-consistent calculation

          k = 0.0000 0.0000 0.0000 (  3943 PWs)   bands (ev):

   -24.0026 -12.0262  -7.1506  -7.1506  -0.9901  -0.2094   0.5706   0.9280

          k =-0.0000 0.0733 0.0000 (  3949 PWs)   bands (ev):

   -23.8951 -11.8969  -7.5851  -7.3829  -0.8439  -0.0610   0.7199   1.0767

          k =-0.0000 0.1466 0.0000 (  3965 PWs)   bands (ev):

   -23.5735 -11.5102  -8.7491  -7.9723  -0.4052   0.3837   1.1678   1.5225

          k =-0.0000 0.2199 0.0000 (  4005 PWs)   bands (ev):

   -23.0402 -10.8738 -10.3375  -8.7123   0.3254   1.1227   1.9142   2.2633

          k =-0.0000 0.2932 0.0000 (  3993 PWs)   bands (ev):

   -22.2984 -12.1092 -10.0015  -9.4250   1.3462   2.1286   2.9073   2.9576

          k =-0.0000 0.3664 0.0000 (  4010 PWs)   bands (ev):

   -21.3567 -13.9152 -10.0162  -8.9293   0.9414   2.6496   3.5090   3.9281

          k =-0.0000 0.4397 0.0000 (  4028 PWs)   bands (ev):

   -20.2306 -15.6567 -10.4341  -7.7438  -0.8799   3.7000   4.2865   5.1168

          k =-0.0000 0.5130 0.0000 (  4026 PWs)   bands (ev):

   -18.9843 -17.2181 -10.6480  -6.7482  -2.2153   3.6184   6.1248   6.9981

          k = 0.0635 0.1099 0.0000 (  3959 PWs)   bands (ev):

   -23.6806 -11.6390  -8.3309  -7.8463  -0.5514   0.2356   1.0185   1.3740

          k = 0.0635 0.1832 0.0000 (  3987 PWs)   bands (ev):

   -23.2531 -11.1269  -9.6151  -8.6066   0.0336   0.8278   1.6159   1.9678

          k = 0.0635 0.2565 0.0000 (  3991 PWs)   bands (ev):

   -22.6155 -11.2329 -10.3711  -9.3935   0.9101   1.7106   2.5115   2.8506

          k = 0.0635 0.3298 0.0000 (  3988 PWs)   bands (ev):

   -21.7730 -12.9907 -10.0766  -9.3948   1.8200   2.0748   2.9227   3.7025

          k = 0.0635 0.4031 0.0000 (  4014 PWs)   bands (ev):

   -20.7389 -14.7506 -10.5952  -8.2489  -0.0413   3.5134   4.3130   4.3765

          k = 0.0635 0.4764 0.0000 (  4022 PWs)   bands (ev):

   -19.5369 -16.4109 -10.9160  -7.0901  -1.6746   4.1315   5.2738   6.1161

          k = 0.0635 0.5497 0.0000 (  4036 PWs)   bands (ev):

   -18.5194 -17.5860 -11.0263  -6.4765  -2.4536   4.0847   7.1710   7.3259

          k = 0.1269 0.2199 0.0000 (  4001 PWs)   bands (ev):

   -22.7214 -10.7338 -10.4964  -9.6099   0.7649   1.5660   2.3628   2.7085

          k = 0.1269 0.2932 0.0000 (  3986 PWs)   bands (ev):

   -21.9831 -12.1547 -10.5478  -9.6305   1.7863   2.3914   2.6165   3.4079

          k = 0.1269 0.3664 0.0000 (  4005 PWs)   bands (ev):

   -21.0469 -13.7861 -11.2408  -8.5654   0.6608   3.0931   3.9152   4.7485

          k = 0.1269 0.4397 0.0000 (  4037 PWs)   bands (ev):

   -19.9315 -15.4410 -11.6969  -7.3795  -1.0374   4.6704   5.4947   5.5055

          k = 0.1269 0.5130 0.0000 (  4049 PWs)   bands (ev):

   -18.7025 -16.9573 -11.9258  -6.3606  -2.3310   5.3797   6.5371   7.2379

          k = 0.1904 0.3298 0.0000 (  4015 PWs)   bands (ev):

   -21.1511 -13.1783 -11.7690  -8.6730   0.9512   2.9495   3.7540   4.6019

          k = 0.1904 0.4031 0.0000 (  4038 PWs)   bands (ev):

   -20.1321 -14.4944 -12.6101  -7.5408  -0.5842   4.3916   5.1617   6.0909

          k = 0.1904 0.4764 0.0000 (  4054 PWs)   bands (ev):

   -18.9565 -15.9666 -13.0404  -6.3620  -2.0299   6.0908   6.6399   7.1963

          k = 0.1904 0.5497 0.0000 (  4053 PWs)   bands (ev):

   -17.9728 -17.0654 -13.1739  -5.6850  -2.7999   7.1203   7.9040   8.1203

          k = 0.2539 0.4397 0.0000 (  4073 PWs)   bands (ev):

   -19.0491 -15.2755 -13.7853  -6.3776  -1.8741   5.9512   6.3985   7.6806

          k = 0.2539 0.5130 0.0000 (  4083 PWs)   bands (ev):

   -17.8735 -16.3596 -14.3381  -5.2554  -3.0524   6.7567   7.7015   8.8645

          k = 0.3173 0.5497 0.0000 (  4071 PWs)   bands (ev):

   -16.8878 -16.8878 -15.0080  -4.1298  -4.1298   6.5474   9.0151   9.0151

     the Fermi energy is    -4.1298 ev

!    total energy              =     -22.77719820 Ry
     estimated scf accuracy    <          4.6E-11 Ry
     smearing contrib. (-TS)   =      -0.00005015 Ry
     internal energy E=F+TS    =     -22.77714805 Ry

     The total energy is F=E-TS. E is the sum of the following terms:
     one-electron contribution =    -396.88743954 Ry
     hartree contribution      =     199.08874855 Ry
     xc contribution           =      -7.06461858 Ry
     ewald contribution        =     182.08616152 Ry

     convergence has been achieved in  15 iterations

     Forces acting on atoms (cartesian axes, Ry/au):

     atom    1 type  1   force =    -0.00000000   -0.00000000    0.00000000
     atom    2 type  1   force =     0.00000000    0.00000000    0.00000000

     Total force =     0.000000     Total SCF correction =     0.000000


     Computing stress (Cartesian axis) and pressure

          total   stress  (Ry/bohr**3)                   (kbar)     P=       -5.81
   0.00000542   0.00000000   0.00000000            0.80        0.00        0.00
   0.00000000   0.00000542   0.00000000            0.00        0.80        0.00
   0.00000000   0.00000000  -0.00012922            0.00        0.00      -19.01

     Energy error            =      1.8E-04
     Gradient error          =      1.6E-26
     Cell gradient error     =      5.4E-06


     number of scf cycles    =   4
     number of bfgs steps    =   3

     enthalpy old            =     -22.7770184641 Ry
     enthalpy new            =     -22.7771982005 Ry

     CASE: enthalpy_new < enthalpy_old

     new trust radius        =       0.0019276240 bohr
     new conv_thr            =            1.0E-10 Ry

     new unit-cell volume =    742.89900 a.u.^3 (   110.08627 Ang^3 )
     density =      0.36234 g/cm^3

CELL_PARAMETERS (alat=  4.38000000)
   1.050746495   0.000000000   0.000000000
  -0.525373247   0.909973157   0.000000000
   0.000000000   0.000000000   9.246575342

ATOMIC_POSITIONS (crystal)
C             0.3333333333        0.6666666667        0.5000000000
C             0.6666666667        0.3333333333        0.5000000000



     Writing output data file ./work/LiC438.save/
     NEW-OLD atomic charge density approx. for the potential
     extrapolated charge    8.00565, renormalised to    8.00000

     total cpu time spent up to now is       17.8 secs

     Self-consistent Calculation

     iteration #  1     ecut=    50.00 Ry     beta= 0.70
     Davidson diagonalization with overlap
     ethr =  1.00E-06,  avg # of iterations =  6.9

     total cpu time spent up to now is       18.0 secs

     total energy              =     -22.77718052 Ry
     estimated scf accuracy    <       0.00000982 Ry

     iteration #  2     ecut=    50.00 Ry     beta= 0.70
     Davidson diagonalization with overlap
     ethr =  1.23E-07,  avg # of iterations =  6.4

     total cpu time spent up to now is       18.2 secs

     total energy              =     -22.77720024 Ry
     estimated scf accuracy    <       0.00000913 Ry

     iteration #  3     ecut=    50.00 Ry     beta= 0.70
     Davidson diagonalization with overlap
     ethr =  1.14E-07,  avg # of iterations =  1.0

     total cpu time spent up to now is       18.3 secs

     total energy              =     -22.77719970 Ry
     estimated scf accuracy    <       0.00000210 Ry

     iteration #  4     ecut=    50.00 Ry     beta= 0.70
     Davidson diagonalization with overlap
     ethr =  2.62E-08,  avg # of iterations =  1.4

     total cpu time spent up to now is       18.5 secs

     total energy              =     -22.77719984 Ry
     estimated scf accuracy    <       0.00000038 Ry

     iteration #  5     ecut=    50.00 Ry     beta= 0.70
     Davidson diagonalization with overlap
     ethr =  4.71E-09,  avg # of iterations =  1.0

     total cpu time spent up to now is       18.6 secs

     total energy              =     -22.77719977 Ry
     estimated scf accuracy    <       0.00000039 Ry

     iteration #  6     ecut=    50.00 Ry     beta= 0.70
     Davidson diagonalization with overlap
     ethr =  4.71E-09,  avg # of iterations =  1.0

     total cpu time spent up to now is       18.7 secs

     total energy              =     -22.77719960 Ry
     estimated scf accuracy    <       0.00000025 Ry

     iteration #  7     ecut=    50.00 Ry     beta= 0.70
     Davidson diagonalization with overlap
     ethr =  3.07E-09,  avg # of iterations =  2.0

     total cpu time spent up to now is       18.8 secs

     total energy              =     -22.77719964 Ry
     estimated scf accuracy    <          8.2E-09 Ry

     iteration #  8     ecut=    50.00 Ry     beta= 0.70
     Davidson diagonalization with overlap
     ethr =  1.02E-10,  avg # of iterations =  1.7

     total cpu time spent up to now is       18.9 secs

     total energy              =     -22.77719964 Ry
     estimated scf accuracy    <          3.7E-10 Ry

     iteration #  9     ecut=    50.00 Ry     beta= 0.70
     Davidson diagonalization with overlap
     ethr =  4.63E-12,  avg # of iterations =  2.4

     total cpu time spent up to now is       19.0 secs

     End of self-consistent calculation

          k = 0.0000 0.0000 0.0000 (  3943 PWs)   bands (ev):

   -23.9972 -12.0221  -7.1539  -7.1539  -0.9900  -0.2095   0.5705   0.9279

          k =-0.0000 0.0733 0.0000 (  3949 PWs)   bands (ev):

   -23.8898 -11.8928  -7.5883  -7.3860  -0.8439  -0.0612   0.7197   1.0765

          k =-0.0000 0.1465 0.0000 (  3965 PWs)   bands (ev):

   -23.5684 -11.5064  -8.7518  -7.9747  -0.4055   0.3832   1.1673   1.5220

          k =-0.0000 0.2198 0.0000 (  4005 PWs)   bands (ev):

   -23.0354 -10.8707 -10.3394  -8.7141   0.3247   1.1216   1.9132   2.2622

          k =-0.0000 0.2930 0.0000 (  3993 PWs)   bands (ev):

   -22.2940 -12.1103  -9.9991  -9.4260   1.3447   2.1265   2.8984   2.9558

          k =-0.0000 0.3663 0.0000 (  4010 PWs)   bands (ev):

   -21.3530 -13.9152 -10.0167  -8.9279   0.9340   2.6472   3.5061   3.9153

          k =-0.0000 0.4396 0.0000 (  4028 PWs)   bands (ev):

   -20.2277 -15.6556 -10.4343  -7.7435  -0.8853   3.6869   4.2823   5.1128

          k =-0.0000 0.5128 0.0000 (  4026 PWs)   bands (ev):

   -18.9827 -17.2154 -10.6480  -6.7490  -2.2191   3.6045   6.1198   6.9926

          k = 0.0634 0.1099 0.0000 (  3959 PWs)   bands (ev):

   -23.6754 -11.6352  -8.3338  -7.8489  -0.5516   0.2352   1.0181   1.3736

          k = 0.0634 0.1832 0.0000 (  3987 PWs)   bands (ev):

   -23.2482 -11.1235  -9.6175  -8.6084   0.0331   0.8269   1.6151   1.9669

          k = 0.0634 0.2564 0.0000 (  3991 PWs)   bands (ev):

   -22.6109 -11.2345 -10.3683  -9.3946   0.9089   1.7091   2.5101   2.8491

          k = 0.0634 0.3297 0.0000 (  3988 PWs)   bands (ev):

   -21.7690 -12.9913 -10.0771  -9.3929   1.8117   2.0728   2.9201   3.7003

          k = 0.0634 0.4029 0.0000 (  4014 PWs)   bands (ev):

   -20.7356 -14.7501 -10.5953  -8.2482  -0.0478   3.5102   4.2995   4.3730

          k = 0.0634 0.4762 0.0000 (  4022 PWs)   bands (ev):

   -19.5345 -16.4092 -10.9159  -7.0905  -1.6792   4.1176   5.2693   6.1113

          k = 0.0634 0.5495 0.0000 (  4036 PWs)   bands (ev):

   -18.5190 -17.5823 -11.0261  -6.4776  -2.4573   4.0706   7.1652   7.3202

          k = 0.1269 0.2198 0.0000 (  4001 PWs)   bands (ev):

   -22.7168 -10.7359 -10.4935  -9.6108   0.7638   1.5646   2.3614   2.7071

          k = 0.1269 0.2930 0.0000 (  3986 PWs)   bands (ev):

   -21.9789 -12.1561 -10.5479  -9.6284   1.7845   2.3827   2.6136   3.4058

          k = 0.1269 0.3663 0.0000 (  4005 PWs)   bands (ev):

   -21.0434 -13.7864 -11.2405  -8.5643   0.6534   3.0903   3.9120   4.7455

          k = 0.1269 0.4396 0.0000 (  4037 PWs)   bands (ev):

   -19.9288 -15.4401 -11.6964  -7.3796  -1.0430   4.6664   5.4902   5.4912

          k = 0.1269 0.5128 0.0000 (  4049 PWs)   bands (ev):

   -18.7010 -16.9549 -11.9252  -6.3617  -2.3351   5.3652   6.5317   7.2319

          k = 0.1903 0.3297 0.0000 (  4015 PWs)   bands (ev):

   -21.1475 -13.1795 -11.7680  -8.6718   0.9432   2.9469   3.7510   4.5989

          k = 0.1903 0.4029 0.0000 (  4038 PWs)   bands (ev):

   -20.1292 -14.4948 -12.6086  -7.5407  -0.5905   4.3879   5.1575   6.0868

          k = 0.1903 0.4762 0.0000 (  4054 PWs)   bands (ev):

   -18.9545 -15.9656 -13.0389  -6.3630  -2.0348   6.0858   6.6345   7.1813

          k = 0.1903 0.5495 0.0000 (  4053 PWs)   bands (ev):

   -17.9725 -17.0627 -13.1724  -5.6867  -2.8038   7.1051   7.8974   8.1135

          k = 0.2538 0.4396 0.0000 (  4073 PWs)   bands (ev):

   -19.0470 -15.2761 -13.7824  -6.3786  -1.8793   5.9463   6.3933   7.6751

          k = 0.2538 0.5128 0.0000 (  4083 PWs)   bands (ev):

   -17.8726 -16.3590 -14.3349  -5.2575  -3.0565   6.7514   7.6950   8.8497

          k = 0.3172 0.5495 0.0000 (  4071 PWs)   bands (ev):

   -16.8879 -16.8879 -15.0031  -4.1329  -4.1329   6.5426   9.0052   9.0052

     the Fermi energy is    -4.1329 ev

!    total energy              =     -22.77719964 Ry
     estimated scf accuracy    <          2.8E-11 Ry
     smearing contrib. (-TS)   =      -0.00005015 Ry
     internal energy E=F+TS    =     -22.77714949 Ry

     The total energy is F=E-TS. E is the sum of the following terms:
     one-electron contribution =    -396.60322760 Ry
     hartree contribution      =     198.94588485 Ry
     xc contribution           =      -7.06306381 Ry
     ewald contribution        =     181.94325706 Ry

     convergence has been achieved in   9 iterations

     Forces acting on atoms (cartesian axes, Ry/au):

     atom    1 type  1   force =     0.00000000    0.00000000    0.00000000
     atom    2 type  1   force =     0.00000000    0.00000000    0.00000000

     Total force =     0.000000     Total SCF correction =     0.000000


     Computing stress (Cartesian axis) and pressure

          total   stress  (Ry/bohr**3)                   (kbar)     P=       -6.33
   0.00000008   0.00000000   0.00000000            0.01        0.00        0.00
   0.00000000   0.00000008   0.00000000            0.00        0.01        0.00
  -0.00000000   0.00000000  -0.00012927           -0.00        0.00      -19.02

     Energy error            =      1.4E-06
     Gradient error          =      0.0E+00
     Cell gradient error     =      7.7E-08


     number of scf cycles    =   5
     number of bfgs steps    =   4

     enthalpy old            =     -22.7771982005 Ry
     enthalpy new            =     -22.7771996404 Ry

     CASE: enthalpy_new < enthalpy_old

     small trust_radius: resetting bfgs history

     new trust radius        =       0.0000104414 bohr
     new conv_thr            =            1.0E-10 Ry

     new unit-cell volume =    742.90185 a.u.^3 (   110.08670 Ang^3 )
     density =      0.36234 g/cm^3

CELL_PARAMETERS (alat=  4.38000000)
   1.050748507   0.000000000   0.000000000
  -0.525374254   0.909974900   0.000000000
   0.000000000   0.000000000   9.246575342

ATOMIC_POSITIONS (crystal)
C             0.3333333333        0.6666666667        0.5000000000
C             0.6666666667        0.3333333333        0.5000000000



     Writing output data file ./work/LiC438.save/
     NEW-OLD atomic charge density approx. for the potential
     extrapolated charge    8.00003, renormalised to    8.00000

     total cpu time spent up to now is       19.1 secs

     Self-consistent Calculation

     iteration #  1     ecut=    50.00 Ry     beta= 0.70
     Davidson diagonalization with overlap
     ethr =  1.00E-06,  avg # of iterations =  1.0

     Threshold (ethr) on eigenvalues was too large:
     Diagonalizing with lowered threshold

     Davidson diagonalization with overlap
     ethr =  2.99E-12,  avg # of iterations =  1.8

     total cpu time spent up to now is       19.3 secs

     total energy              =     -22.77719964 Ry
     estimated scf accuracy    <          2.7E-10 Ry

     iteration #  2     ecut=    50.00 Ry     beta= 0.70
     Davidson diagonalization with overlap
     ethr =  3.38E-12,  avg # of iterations =  3.0

     total cpu time spent up to now is       19.4 secs

     total energy              =     -22.77719964 Ry
     estimated scf accuracy    <          2.6E-10 Ry

     iteration #  3     ecut=    50.00 Ry     beta= 0.70
     Davidson diagonalization with overlap
     ethr =  3.29E-12,  avg # of iterations =  1.0

     total cpu time spent up to now is       19.6 secs

     End of self-consistent calculation

          k = 0.0000 0.0000 0.0000 (  3943 PWs)   bands (ev):

   -23.9973 -12.0222  -7.1541  -7.1541  -0.9900  -0.2095   0.5705   0.9279

          k =-0.0000 0.0733 0.0000 (  3949 PWs)   bands (ev):

   -23.8899 -11.8930  -7.5885  -7.3862  -0.8439  -0.0612   0.7197   1.0765

          k =-0.0000 0.1465 0.0000 (  3965 PWs)   bands (ev):

   -23.5686 -11.5066  -8.7520  -7.9749  -0.4055   0.3832   1.1673   1.5220

          k =-0.0000 0.2198 0.0000 (  4005 PWs)   bands (ev):

   -23.0355 -10.8708 -10.3396  -8.7142   0.3246   1.1216   1.9131   2.2622

          k =-0.0000 0.2930 0.0000 (  3993 PWs)   bands (ev):

   -22.2942 -12.1104  -9.9992  -9.4262   1.3447   2.1265   2.8983   2.9558

          k =-0.0000 0.3663 0.0000 (  4010 PWs)   bands (ev):

   -21.3531 -13.9153 -10.0169  -8.9280   0.9338   2.6471   3.5061   3.9151

          k =-0.0000 0.4396 0.0000 (  4028 PWs)   bands (ev):

   -20.2279 -15.6557 -10.4345  -7.7436  -0.8855   3.6867   4.2822   5.1127

          k =-0.0000 0.5128 0.0000 (  4026 PWs)   bands (ev):

   -18.9828 -17.2156 -10.6481  -6.7491  -2.2193   3.6043   6.1198   6.9925

          k = 0.0634 0.1099 0.0000 (  3959 PWs)   bands (ev):

   -23.6755 -11.6353  -8.3340  -7.8490  -0.5516   0.2352   1.0181   1.3735

          k = 0.0634 0.1832 0.0000 (  3987 PWs)   bands (ev):

   -23.2484 -11.1236  -9.6177  -8.6086   0.0330   0.8269   1.6150   1.9669

          k = 0.0634 0.2564 0.0000 (  3991 PWs)   bands (ev):

   -22.6111 -11.2347 -10.3685  -9.3948   0.9089   1.7091   2.5101   2.8491

          k = 0.0634 0.3297 0.0000 (  3988 PWs)   bands (ev):

   -21.7692 -12.9915 -10.0773  -9.3931   1.8115   2.0728   2.9201   3.7002

          k = 0.0634 0.4029 0.0000 (  4014 PWs)   bands (ev):

   -20.7357 -14.7503 -10.5955  -8.2483  -0.0479   3.5102   4.2993   4.3730

          k = 0.0634 0.4762 0.0000 (  4022 PWs)   bands (ev):

   -19.5347 -16.4094 -10.9161  -7.0906  -1.6793   4.1174   5.2693   6.1113

          k = 0.0634 0.5495 0.0000 (  4036 PWs)   bands (ev):

   -18.5192 -17.5825 -11.0263  -6.4778  -2.4575   4.0704   7.1651   7.3201

          k = 0.1269 0.2198 0.0000 (  4001 PWs)   bands (ev):

   -22.7170 -10.7361 -10.4936  -9.6110   0.7638   1.5646   2.3614   2.7071

          k = 0.1269 0.2930 0.0000 (  3986 PWs)   bands (ev):

   -21.9791 -12.1563 -10.5481  -9.6285   1.7844   2.3825   2.6135   3.4058

          k = 0.1269 0.3663 0.0000 (  4005 PWs)   bands (ev):

   -21.0436 -13.7866 -11.2407  -8.5645   0.6532   3.0903   3.9119   4.7454

          k = 0.1269 0.4396 0.0000 (  4037 PWs)   bands (ev):

   -19.9289 -15.4403 -11.6965  -7.3797  -1.0432   4.6664   5.4902   5.4910

          k = 0.1269 0.5128 0.0000 (  4049 PWs)   bands (ev):

   -18.7012 -16.9551 -11.9254  -6.3619  -2.3352   5.3650   6.5317   7.2319

          k = 0.1903 0.3297 0.0000 (  4015 PWs)   bands (ev):

   -21.1477 -13.1797 -11.7682  -8.6720   0.9430   2.9468   3.7510   4.5989

          k = 0.1903 0.4029 0.0000 (  4038 PWs)   bands (ev):

   -20.1294 -14.4950 -12.6087  -7.5408  -0.5907   4.3879   5.1575   6.0867

          k = 0.1903 0.4762 0.0000 (  4054 PWs)   bands (ev):

   -18.9547 -15.9658 -13.0390  -6.3632  -2.0349   6.0858   6.6344   7.1810

          k = 0.1903 0.5495 0.0000 (  4053 PWs)   bands (ev):

   -17.9727 -17.0628 -13.1726  -5.6869  -2.8040   7.1048   7.8973   8.1131

          k = 0.2538 0.4396 0.0000 (  4073 PWs)   bands (ev):

   -19.0472 -15.2763 -13.7826  -6.3787  -1.8794   5.9463   6.3933   7.6750

          k = 0.2538 0.5128 0.0000 (  4083 PWs)   bands (ev):

   -17.8728 -16.3592 -14.3351  -5.2577  -3.0566   6.7513   7.6949   8.8495

          k = 0.3172 0.5495 0.0000 (  4071 PWs)   bands (ev):

   -16.8881 -16.8881 -15.0032  -4.1331  -4.1331   6.5425   9.0050   9.0050

     the Fermi energy is    -4.1331 ev

!    total energy              =     -22.77719964 Ry
     estimated scf accuracy    <          6.3E-11 Ry
     smearing contrib. (-TS)   =      -0.00005015 Ry
     internal energy E=F+TS    =     -22.77714949 Ry

     The total energy is F=E-TS. E is the sum of the following terms:
     one-electron contribution =    -396.60172419 Ry
     hartree contribution      =     198.94515011 Ry
     xc contribution           =      -7.06305883 Ry
     ewald contribution        =     181.94248341 Ry

     convergence has been achieved in   3 iterations

     Forces acting on atoms (cartesian axes, Ry/au):

     atom    1 type  1   force =     0.00000000    0.00000000    0.00000000
     atom    2 type  1   force =     0.00000000    0.00000000    0.00000000

     Total force =     0.000000     Total SCF correction =     0.000000


     Computing stress (Cartesian axis) and pressure

          total   stress  (Ry/bohr**3)                   (kbar)     P=       -6.33
   0.00000004   0.00000000   0.00000000            0.01        0.00        0.00
   0.00000000   0.00000004   0.00000000            0.00        0.01        0.00
   0.00000000   0.00000000  -0.00012923            0.00        0.00      -19.01

     Energy error            =      1.5E-10
     Gradient error          =      0.0E+00
     Cell gradient error     =      4.0E-08


     number of scf cycles    =   6
     number of bfgs steps    =   5

     enthalpy old            =     -22.7771996404 Ry
     enthalpy new            =     -22.7771996405 Ry

     CASE: enthalpy_new < enthalpy_old

     Message from routine bfgs:
     history already reset at previous step: stopping
     small trust_radius: resetting bfgs history

     new trust radius        =       0.0000054346 bohr
     new conv_thr            =            1.0E-10 Ry

     new unit-cell volume =    742.90333 a.u.^3 (   110.08692 Ang^3 )
     density =      0.36234 g/cm^3

CELL_PARAMETERS (alat=  4.38000000)
   1.050749555   0.000000000   0.000000000
  -0.525374777   0.909975808   0.000000000
   0.000000000   0.000000000   9.246575342

ATOMIC_POSITIONS (crystal)
C             0.3333333333        0.6666666667        0.5000000000
C             0.6666666667        0.3333333333        0.5000000000



     Writing output data file ./work/LiC438.save/
     NEW-OLD atomic charge density approx. for the potential
     extrapolated charge    8.00002, renormalised to    8.00000

     total cpu time spent up to now is       19.6 secs

     Self-consistent Calculation

     iteration #  1     ecut=    50.00 Ry     beta= 0.70
     Davidson diagonalization with overlap
     ethr =  1.00E-06,  avg # of iterations =  1.0

     Threshold (ethr) on eigenvalues was too large:
     Diagonalizing with lowered threshold

     Davidson diagonalization with overlap
     ethr =  1.94E-12,  avg # of iterations =  2.1

     total cpu time spent up to now is       19.8 secs

     total energy              =     -22.77719964 Ry
[...]

          k = 0.1269 0.5128 0.0000 (  4049 PWs)   bands (ev):

   -18.7012 -16.9551 -11.9254  -6.3619  -2.3352   5.3649   6.5317   7.2318

          k = 0.1903 0.3297 0.0000 (  4015 PWs)   bands (ev):

   -21.1477 -13.1797 -11.7682  -8.6720   0.9430   2.9468   3.7510   4.5989

          k = 0.1903 0.4029 0.0000 (  4038 PWs)   bands (ev):

   -20.1294 -14.4950 -12.6087  -7.5408  -0.5907   4.3879   5.1575   6.0867

          k = 0.1903 0.4762 0.0000 (  4054 PWs)   bands (ev):

   -18.9547 -15.9658 -13.0390  -6.3632  -2.0350   6.0858   6.6344   7.1810

          k = 0.1903 0.5495 0.0000 (  4053 PWs)   bands (ev):

   -17.9727 -17.0628 -13.1726  -5.6869  -2.8040   7.1048   7.3026   7.8973

          k = 0.2538 0.4396 0.0000 (  4073 PWs)   bands (ev):

   -19.0472 -15.2763 -13.7826  -6.3787  -1.8794   5.9463   6.3933   7.6749

          k = 0.2538 0.5128 0.0000 (  4083 PWs)   bands (ev):

   -17.8728 -16.3592 -14.3351  -5.2577  -3.0567   6.7513   7.6949   8.8494

          k = 0.3172 0.5495 0.0000 (  4071 PWs)   bands (ev):

   -16.8881 -16.8881 -15.0032  -4.1331  -4.1331   6.5425   9.0050   9.0050

     the Fermi energy is    -4.1331 ev

!    total energy              =     -22.77719964 Ry
     estimated scf accuracy    <          7.3E-11 Ry
     smearing contrib. (-TS)   =      -0.00005015 Ry
     internal energy E=F+TS    =     -22.77714949 Ry

     The total energy is F=E-TS. E is the sum of the following terms:
     one-electron contribution =    -396.60092363 Ry
     hartree contribution      =     198.94474779 Ry
     xc contribution           =      -7.06305439 Ry
     ewald contribution        =     181.94208074 Ry

     convergence has been achieved in   2 iterations

     Forces acting on atoms (cartesian axes, Ry/au):

     atom    1 type  1   force =     0.00000000    0.00000000    0.00000000
     atom    2 type  1   force =    -0.00000000   -0.00000000    0.00000000

     Total force =     0.000000     Total SCF correction =     0.000000


     Computing stress (Cartesian axis) and pressure

          total   stress  (Ry/bohr**3)                   (kbar)     P=       -6.33
   0.00000002  -0.00000000   0.00000000            0.00       -0.00        0.00
  -0.00000000   0.00000002   0.00000000           -0.00        0.00        0.00
   0.00000000  -0.00000000  -0.00012923            0.00       -0.00      -19.01

     Message from routine bfgs:
     history already reset at previous step: stopping
     Energy error            =      8.1E-11
     Gradient error          =      1.6E-26
     Cell gradient error     =      2.4E-08


     bfgs converged in   7 scf cycles and   6 bfgs steps
     (criteria: energy <  1.0E-04 Ry, force <  1.0E-08Ry/Bohr, cell <  1.0E-03kbar)

     End of BFGS Geometry Optimization

     Final enthalpy =     -22.7771996406 Ry

     File ./work/LiC438.bfgs deleted, as requested
Begin final coordinates
     new unit-cell volume =    742.90333 a.u.^3 (   110.08692 Ang^3 )
     density =      0.36234 g/cm^3

CELL_PARAMETERS (alat=  4.38000000)
   1.050749555   0.000000000   0.000000000
  -0.525374777   0.909975808   0.000000000
   0.000000000   0.000000000   9.246575342

ATOMIC_POSITIONS (crystal)
C             0.3333333333        0.6666666667        0.5000000000
C             0.6666666667        0.3333333333        0.5000000000
End final coordinates



     Writing output data file ./work/LiC438.save/

     Final scf calculation at the relaxed structure.
     The G-vectors are recalculated for the final unit cell
     Results may differ from those at the preceding step.
 
     Parallelization info
     --------------------
     sticks:   dense  smooth     PW     G-vecs:    dense   smooth      PW
     Min           9       9      2                 1105     1105     170
     Max          10      10      3                 1130     1130     215
     Sum         295     295     91                35601    35601    6361
 


     bravais-lattice index     =            4
     lattice parameter (alat)  =       4.3800  a.u.
     unit-cell volume          =     742.9033 (a.u.)^3
     number of atoms/cell      =            2
     number of atomic types    =            1
     number of electrons       =         8.00
     number of Kohn-Sham states=            8
     kinetic-energy cutoff     =      50.0000  Ry
     charge density cutoff     =     200.0000  Ry
     scf convergence threshold =      1.0E-10
     mixing beta               =       0.7000
     number of iterations used =            8  plain     mixing
     press convergence thresh. =      1.0E-03
     Exchange-correlation= PBE
                           (   1   4   3   4   0   0   0)

     celldm(1)=   4.380000  celldm(2)=   0.000000  celldm(3)=   9.246575
     celldm(4)=   0.000000  celldm(5)=   0.000000  celldm(6)=   0.000000

     crystal axes: (cart. coord. in units of alat)
               a(1) = (   1.050750   0.000000   0.000000 )  
               a(2) = (  -0.525375   0.909976   0.000000 )  
               a(3) = (   0.000000   0.000000   9.246575 )  

     reciprocal axes: (cart. coord. in units 2 pi/alat)
               b(1) = (  0.951702  0.549465  0.000000 )  
               b(2) = ( -0.000000  1.098930  0.000000 )  
               b(3) = (  0.000000  0.000000  0.108148 )  


     PseudoPot. # 1 for C  read from file:
     /home/yhkim/qe-6.7/pseudo/ONCV1/1.2/C_ONCV_PBE-1.2.upf
     MD5 check sum: 1a5f83a7b1f58d24996abe00ed223ac6
     Pseudo is Norm-conserving, Zval =  4.0
     Generated using ONCVPSP code by D. R. Hamann
     Using radial grid of  602 points,  4 beta functions with: 
                l(1) =   0
                l(2) =   0
                l(3) =   1
                l(4) =   1

     atomic species   valence    mass     pseudopotential
        C              4.00    12.01070     C ( 1.00)

     24 Sym. Ops., with inversion, found



   Cartesian axes

     site n.     atom                  positions (alat units)
         1           C   tau(   1) = (  -0.0000000   0.6066505   4.6232877  )
         2           C   tau(   2) = (   0.5253748   0.3033253   4.6232877  )

     number of k points=    27  Methfessel-Paxton smearing, width (Ry)=  0.0100
                       cart. coord. in units 2pi/alat
        k(    1) = (   0.0000000   0.0000000   0.0000000), wk =   0.0088889
        k(    2) = (  -0.0000000   0.0732620   0.0000000), wk =   0.0533333
        k(    3) = (  -0.0000000   0.1465240   0.0000000), wk =   0.0533333
        k(    4) = (  -0.0000000   0.2197861   0.0000000), wk =   0.0533333
        k(    5) = (  -0.0000000   0.2930481   0.0000000), wk =   0.0533333
        k(    6) = (  -0.0000000   0.3663101   0.0000000), wk =   0.0533333
        k(    7) = (  -0.0000000   0.4395721   0.0000000), wk =   0.0533333
        k(    8) = (  -0.0000000   0.5128341   0.0000000), wk =   0.0533333
        k(    9) = (   0.0634468   0.1098930   0.0000000), wk =   0.0533333
        k(   10) = (   0.0634468   0.1831551   0.0000000), wk =   0.1066667
        k(   11) = (   0.0634468   0.2564171   0.0000000), wk =   0.1066667
        k(   12) = (   0.0634468   0.3296791   0.0000000), wk =   0.1066667
        k(   13) = (   0.0634468   0.4029411   0.0000000), wk =   0.1066667
        k(   14) = (   0.0634468   0.4762031   0.0000000), wk =   0.1066667
        k(   15) = (   0.0634468   0.5494652   0.0000000), wk =   0.0533333
        k(   16) = (   0.1268935   0.2197861   0.0000000), wk =   0.0533333
        k(   17) = (   0.1268935   0.2930481   0.0000000), wk =   0.1066667
        k(   18) = (   0.1268935   0.3663101   0.0000000), wk =   0.1066667
        k(   19) = (   0.1268935   0.4395721   0.0000000), wk =   0.1066667
        k(   20) = (   0.1268935   0.5128341   0.0000000), wk =   0.1066667
        k(   21) = (   0.1903403   0.3296791   0.0000000), wk =   0.0533333
        k(   22) = (   0.1903403   0.4029411   0.0000000), wk =   0.1066667
        k(   23) = (   0.1903403   0.4762031   0.0000000), wk =   0.1066667
        k(   24) = (   0.1903403   0.5494652   0.0000000), wk =   0.0533333
        k(   25) = (   0.2537871   0.4395721   0.0000000), wk =   0.0533333
        k(   26) = (   0.2537871   0.5128341   0.0000000), wk =   0.1066667
        k(   27) = (   0.3172339   0.5494652   0.0000000), wk =   0.0177778

     Dense  grid:    35601 G-vectors     FFT dimensions: (  24,  24, 192)

     Estimated max dynamical RAM per process >       1.94 MB

     Estimated total dynamical RAM >      62.15 MB
 ----2D----2D----2D----2D----2D----2D----2D----2D----2D----2D----2D----2D
  The code is running with the 2D cutoff
  Please refer to:
  Sohier, T., Calandra, M., & Mauri, F. (2017), 
  Density functional perturbation theory for gated two-dimensional heterostructu
 res:
  Theoretical developments and application to flexural phonons in graphene.
  Physical Review B, 96(7), 75448. https://doi.org/10.1103/PhysRevB.96.075448
 ----2D----2D----2D----2D----2D----2D----2D----2D----2D----2D----2D----2D

     Initial potential from superposition of free atoms

     starting charge    7.98607, renormalised to    8.00000

     negative rho (up, down):  1.102E-04 0.000E+00
     Starting wfcs are random

     total cpu time spent up to now is       20.1 secs

     Self-consistent Calculation

     iteration #  1     ecut=    50.00 Ry     beta= 0.70
     Davidson diagonalization with overlap
     c_bands:  5 eigenvalues not converged
     c_bands:  5 eigenvalues not converged
     c_bands:  5 eigenvalues not converged
     c_bands:  4 eigenvalues not converged
     c_bands:  4 eigenvalues not converged
     c_bands:  4 eigenvalues not converged
     c_bands:  3 eigenvalues not converged
     c_bands:  2 eigenvalues not converged
     c_bands:  5 eigenvalues not converged
     c_bands:  5 eigenvalues not converged
     c_bands:  4 eigenvalues not converged
     c_bands:  4 eigenvalues not converged
     c_bands:  3 eigenvalues not converged
     c_bands:  3 eigenvalues not converged
     c_bands:  3 eigenvalues not converged
     c_bands:  5 eigenvalues not converged
     c_bands:  4 eigenvalues not converged
     c_bands:  4 eigenvalues not converged
     c_bands:  3 eigenvalues not converged
     c_bands:  3 eigenvalues not converged
     c_bands:  4 eigenvalues not converged
     c_bands:  4 eigenvalues not converged
     c_bands:  3 eigenvalues not converged
     c_bands:  4 eigenvalues not converged
     c_bands:  3 eigenvalues not converged
     c_bands:  3 eigenvalues not converged
     c_bands:  3 eigenvalues not converged
     ethr =  1.00E-06,  avg # of iterations = 20.0

     negative rho (up, down):  2.178E-05 0.000E+00

     total cpu time spent up to now is       20.8 secs

     total energy              =     -22.75678078 Ry
     estimated scf accuracy    <       0.21119416 Ry

     iteration #  2     ecut=    50.00 Ry     beta= 0.70
     Davidson diagonalization with overlap
     ethr =  2.64E-03,  avg # of iterations =  2.4

     negative rho (up, down):  2.637E-06 0.000E+00

     total cpu time spent up to now is       20.9 secs

     total energy              =     -22.78882493 Ry
     estimated scf accuracy    <       0.00237983 Ry

     iteration #  3     ecut=    50.00 Ry     beta= 0.70
     Davidson diagonalization with overlap
     ethr =  2.97E-05,  avg # of iterations =  8.9

     total cpu time spent up to now is       21.1 secs

     total energy              =     -22.78922904 Ry
     estimated scf accuracy    <       0.00017586 Ry

     iteration #  4     ecut=    50.00 Ry     beta= 0.70
     Davidson diagonalization with overlap
     ethr =  2.20E-06,  avg # of iterations =  5.3

     total cpu time spent up to now is       21.3 secs

     total energy              =     -22.78924430 Ry
     estimated scf accuracy    <       0.00000121 Ry

     iteration #  5     ecut=    50.00 Ry     beta= 0.70
     Davidson diagonalization with overlap
     ethr =  1.51E-08,  avg # of iterations =  3.8

     total cpu time spent up to now is       21.4 secs

     total energy              =     -22.78924574 Ry
     estimated scf accuracy    <       0.00000004 Ry

     iteration #  6     ecut=    50.00 Ry     beta= 0.70
     Davidson diagonalization with overlap
     ethr =  4.84E-10,  avg # of iterations =  2.2

     total cpu time spent up to now is       21.5 secs

     total energy              =     -22.78924575 Ry
     estimated scf accuracy    <          1.1E-09 Ry

     iteration #  7     ecut=    50.00 Ry     beta= 0.70
     Davidson diagonalization with overlap
     ethr =  1.31E-11,  avg # of iterations =  3.4

     total cpu time spent up to now is       21.6 secs

     End of self-consistent calculation

          k = 0.0000 0.0000 0.0000 (  4399 PWs)   bands (ev):

   -23.9813 -12.0169  -7.2026  -7.2026  -0.9873  -0.2042   0.5820   0.9373

          k =-0.0000 0.0733 0.0000 (  4407 PWs)   bands (ev):

   -23.8740 -11.8880  -7.6324  -7.4339  -0.8413  -0.0559   0.7312   1.0860

          k =-0.0000 0.1465 0.0000 (  4397 PWs)   bands (ev):

   -23.5531 -11.5019  -8.7729  -8.0160  -0.4030   0.3884   1.1787   1.5315

          k =-0.0000 0.2198 0.0000 (  4413 PWs)   bands (ev):

   -23.0210 -10.8647 -10.3476  -8.7472   0.3268   1.1268   1.9245   2.2718

          k =-0.0000 0.2930 0.0000 (  4435 PWs)   bands (ev):

   -22.2818 -12.1151  -9.9943  -9.4558   1.3463   2.1307   2.8936   2.9671

          k =-0.0000 0.3663 0.0000 (  4447 PWs)   bands (ev):

   -21.3425 -13.9152 -10.0466  -8.9239   0.9328   2.6478   3.5108   3.9178

          k =-0.0000 0.4396 0.0000 (  4459 PWs)   bands (ev):

   -20.2175 -15.6518 -10.4627  -7.7397  -0.8865   3.6930   4.2849   5.1171

          k =-0.0000 0.5128 0.0000 (  4459 PWs)   bands (ev):

   -18.9725 -17.2123 -10.6768  -6.7455  -2.2188   3.6139   6.1204   6.9960

          k = 0.0634 0.1099 0.0000 (  4401 PWs)   bands (ev):

   -23.6598 -11.6295  -8.3628  -7.8954  -0.5490   0.2404   1.0296   1.3831

          k = 0.0634 0.1832 0.0000 (  4418 PWs)   bands (ev):

   -23.2336 -11.1188  -9.6289  -8.6454   0.0353   0.8321   1.6264   1.9764

          k = 0.0634 0.2564 0.0000 (  4422 PWs)   bands (ev):

   -22.5979 -11.2404 -10.3638  -9.4251   0.9107   1.7141   2.5213   2.8585

          k = 0.0634 0.3297 0.0000 (  4446 PWs)   bands (ev):

   -21.7586 -12.9943 -10.1061  -9.3887   1.8060   2.0739   2.9247   3.7110

          k = 0.0634 0.4029 0.0000 (  4450 PWs)   bands (ev):

   -20.7256 -14.7490 -10.6225  -8.2445  -0.0487   3.5104   4.3021   4.3775

          k = 0.0634 0.4762 0.0000 (  4457 PWs)   bands (ev):

   -19.5250 -16.4062 -10.9437  -7.0878  -1.6798   4.1222   5.2705   6.1149

          k = 0.0634 0.5495 0.0000 (  4426 PWs)   bands (ev):

   -18.5059 -17.5803 -11.0516  -6.4731  -2.4550   4.0771   7.1662   7.3201

          k = 0.1269 0.2198 0.0000 (  4411 PWs)   bands (ev):

   -22.7037 -10.7416 -10.4873  -9.6390   0.7657   1.5698   2.3728   2.7169

          k = 0.1269 0.2930 0.0000 (  4428 PWs)   bands (ev):

   -21.9681 -12.1610 -10.5695  -9.6251   1.7858   2.3786   2.6174   3.4170

          k = 0.1269 0.3663 0.0000 (  4447 PWs)   bands (ev):

   -21.0346 -13.7878 -11.2579  -8.5610   0.6511   3.0910   3.9163   4.7563

          k = 0.1269 0.4396 0.0000 (  4461 PWs)   bands (ev):

   -19.9191 -15.4379 -11.7119  -7.3774  -1.0447   4.6664   5.4896   5.4938

          k = 0.1269 0.5128 0.0000 (  4455 PWs)   bands (ev):

   -18.6907 -16.9511 -11.9394  -6.3601  -2.3346   5.3645   6.5321   7.2339

          k = 0.1903 0.3297 0.0000 (  4439 PWs)   bands (ev):

   -21.1382 -13.1804 -11.7813  -8.6683   0.9392   2.9477   3.7553   4.6100

          k = 0.1903 0.4029 0.0000 (  4433 PWs)   bands (ev):

   -20.1204 -14.4925 -12.6167  -7.5380  -0.5927   4.3883   5.1610   6.0982

          k = 0.1903 0.4762 0.0000 (  4444 PWs)   bands (ev):

   -18.9455 -15.9612 -13.0460  -6.3605  -2.0367   6.0853   6.6363   7.1746

          k = 0.1903 0.5495 0.0000 (  4425 PWs)   bands (ev):

   -17.9616 -17.0588 -13.1784  -5.6857  -2.8035   7.0990   7.3041   7.8956

          k = 0.2538 0.4396 0.0000 (  4439 PWs)   bands (ev):

   -19.0382 -15.2691 -13.7890  -6.3750  -1.8807   5.9460   6.3955   7.6876

          k = 0.2538 0.5128 0.0000 (  4430 PWs)   bands (ev):

   -17.8626 -16.3514 -14.3399  -5.2556  -3.0565   6.7540   7.6929   8.8380

          k = 0.3172 0.5495 0.0000 (  4395 PWs)   bands (ev):

   -16.8769 -16.8769 -15.0088  -4.1340  -4.1340   6.5459   8.9978   8.9978

     the Fermi energy is    -4.1340 ev

!    total energy              =     -22.78924576 Ry
     estimated scf accuracy    <          1.1E-11 Ry
     smearing contrib. (-TS)   =      -0.00005015 Ry
     internal energy E=F+TS    =     -22.78919561 Ry

     The total energy is F=E-TS. E is the sum of the following terms:
     one-electron contribution =    -396.62316868 Ry
     hartree contribution      =     198.95554494 Ry
     xc contribution           =      -7.06365270 Ry
     ewald contribution        =     181.94208084 Ry

     convergence has been achieved in   7 iterations

     Forces acting on atoms (cartesian axes, Ry/au):

     atom    1 type  1   force =     0.00000000    0.00000000    0.00000000
     atom    2 type  1   force =    -0.00000000   -0.00000000    0.00000000

     Total force =     0.000000     Total SCF correction =     0.000000


     Computing stress (Cartesian axis) and pressure

          total   stress  (Ry/bohr**3)                   (kbar)     P=        0.40
   0.00005970  -0.00000000   0.00000000            8.78       -0.00        0.00
  -0.00000000   0.00005970  -0.00000000           -0.00        8.78       -0.00
   0.00000000   0.00000000  -0.00011127            0.00        0.00      -16.37


     Writing output data file ./work/LiC438.save/
 
     init_run     :      0.14s CPU      0.16s WALL (       2 calls)
     electrons    :     19.44s CPU     21.13s WALL (       8 calls)
     update_pot   :      0.06s CPU      0.07s WALL (       6 calls)
     forces       :      0.06s CPU      0.07s WALL (       8 calls)
     stress       :      0.16s CPU      0.17s WALL (       8 calls)

     Called by init_run:
     wfcinit      :      0.10s CPU      0.11s WALL (       2 calls)
     potinit      :      0.02s CPU      0.02s WALL (       2 calls)
     hinit0       :      0.01s CPU      0.01s WALL (       2 calls)

     Called by electrons:
     c_bands      :     17.37s CPU     18.75s WALL (     103 calls)
     sum_band     :      1.85s CPU      1.98s WALL (     103 calls)
     v_of_rho     :      0.17s CPU      0.19s WALL (     109 calls)
     mix_rho      :      0.04s CPU      0.04s WALL (     103 calls)

     Called by c_bands:
     init_us_2    :      0.10s CPU      0.10s WALL (    6048 calls)
     cegterg      :     17.08s CPU     18.42s WALL (    2828 calls)

     Called by *egterg:
     cdiaghg      :      1.61s CPU      1.74s WALL (   17966 calls)
     h_psi        :     14.31s CPU     15.43s WALL (   18237 calls)
     g_psi        :      0.04s CPU      0.04s WALL (   15355 calls)

     Called by h_psi:
     h_psi:calbec :      0.48s CPU      0.51s WALL (   18237 calls)
     vloc_psi     :     13.55s CPU     14.62s WALL (   18237 calls)
     add_vuspsi   :      0.13s CPU      0.14s WALL (   18237 calls)

     General routines
     calbec       :      0.49s CPU      0.52s WALL (   19317 calls)
     fft          :      0.15s CPU      0.16s WALL (    1154 calls)
     ffts         :      0.01s CPU      0.01s WALL (     103 calls)
     fftw         :     14.58s CPU     15.70s WALL (  205086 calls)
 
     Parallel routines
     fft_scatt_xy :      0.79s CPU      0.84s WALL (  206343 calls)
     fft_scatt_yz :      6.13s CPU      6.60s WALL (  206343 calls)
 
     PWSCF        :     19.95s CPU     21.92s WALL

 
   This run was terminated on:  14:12: 9  19Jan2024            

=------------------------------------------------------------------------------=
   JOB DONE.
=------------------------------------------------------------------------------=
