
     Program PWSCF v.6.7MaX starts on 19Jan2024 at 13:56:14 

     This program is part of the open-source Quantum ESPRESSO suite
     for quantum simulation of materials; please cite
         "P. Giannozzi et al., J. Phys.:Condens. Matter 21 395502 (2009);
         "P. Giannozzi et al., J. Phys.:Condens. Matter 29 465901 (2017);
          URL http://www.quantum-espresso.org", 
     in publications or presentations arising from this work. More details at
     http://www.quantum-espresso.org/quote

     Parallel version (MPI), running on    32 processors

     MPI processes distributed on     1 nodes
     R & G space division:  proc/nbgrp/npool/nimage =      32
     Waiting for input...
     Reading input from standard input

     Current dimensions of program PWSCF are:
     Max number of different atomic species (ntypx) = 10
     Max number of k-points (npk) =  40000
     Max angular momentum in pseudopotentials (lmaxx) =  3
     Message from routine read_pp_mesh:
     mesh size missing, using the one in header

     Subspace diagonalization in iterative solution of the eigenvalue problem:
     a serial algorithm will be used

 
     Parallelization info
     --------------------
     sticks:   dense  smooth     PW     G-vecs:    dense   smooth      PW
     Min           7       7      2                  869      869     152
     Max           8       8      3                  895      895     183
     Sum         235     235     73                28161    28161    5217
 


     bravais-lattice index     =            4
     lattice parameter (alat)  =       4.1000  a.u.
     unit-cell volume          =     589.5944 (a.u.)^3
     number of atoms/cell      =            2
     number of atomic types    =            1
     number of electrons       =         8.00
     number of Kohn-Sham states=            8
     kinetic-energy cutoff     =      50.0000  Ry
     charge density cutoff     =     200.0000  Ry
     scf convergence threshold =      1.0E-08
     mixing beta               =       0.7000
     number of iterations used =            8  plain     mixing
     energy convergence thresh.=      1.0E-04
     force convergence thresh. =      1.0E-08
     press convergence thresh. =      1.0E-03
     Exchange-correlation= PBE
                           (   1   4   3   4   0   0   0)
     nstep                     =           50


     celldm(1)=   4.100000  celldm(2)=   0.000000  celldm(3)=   9.878049
     celldm(4)=   0.000000  celldm(5)=   0.000000  celldm(6)=   0.000000

     crystal axes: (cart. coord. in units of alat)
               a(1) = (   1.000000   0.000000   0.000000 )  
               a(2) = (  -0.500000   0.866025   0.000000 )  
               a(3) = (   0.000000   0.000000   9.878049 )  

     reciprocal axes: (cart. coord. in units 2 pi/alat)
               b(1) = (  1.000000  0.577350  0.000000 )  
               b(2) = (  0.000000  1.154701  0.000000 )  
               b(3) = (  0.000000  0.000000  0.101235 )  


     PseudoPot. # 1 for C  read from file:
     /home/yhkim/qe-6.7/pseudo/ONCV1/1.2/C_ONCV_PBE-1.2.upf
     MD5 check sum: 1a5f83a7b1f58d24996abe00ed223ac6
     Pseudo is Norm-conserving, Zval =  4.0
     Generated using ONCVPSP code by D. R. Hamann
     Using radial grid of  602 points,  4 beta functions with: 
                l(1) =   0
                l(2) =   0
                l(3) =   1
                l(4) =   1

     atomic species   valence    mass     pseudopotential
        C              4.00    12.01070     C ( 1.00)

     24 Sym. Ops., with inversion, found



   Cartesian axes

     site n.     atom                  positions (alat units)
         1           C   tau(   1) = (  -0.0000000   0.5773503   4.9390244  )
         2           C   tau(   2) = (   0.5000000   0.2886751   4.9390244  )

     number of k points=    27  Methfessel-Paxton smearing, width (Ry)=  0.0100
                       cart. coord. in units 2pi/alat
        k(    1) = (   0.0000000   0.0000000   0.0000000), wk =   0.0088889
        k(    2) = (   0.0000000   0.0769800   0.0000000), wk =   0.0533333
        k(    3) = (   0.0000000   0.1539601   0.0000000), wk =   0.0533333
        k(    4) = (   0.0000000   0.2309401   0.0000000), wk =   0.0533333
        k(    5) = (   0.0000000   0.3079201   0.0000000), wk =   0.0533333
        k(    6) = (   0.0000000   0.3849002   0.0000000), wk =   0.0533333
        k(    7) = (   0.0000000   0.4618802   0.0000000), wk =   0.0533333
        k(    8) = (   0.0000000   0.5388603   0.0000000), wk =   0.0533333
        k(    9) = (   0.0666667   0.1154701   0.0000000), wk =   0.0533333
        k(   10) = (   0.0666667   0.1924501   0.0000000), wk =   0.1066667
        k(   11) = (   0.0666667   0.2694301   0.0000000), wk =   0.1066667
        k(   12) = (   0.0666667   0.3464102   0.0000000), wk =   0.1066667
        k(   13) = (   0.0666667   0.4233902   0.0000000), wk =   0.1066667
        k(   14) = (   0.0666667   0.5003702   0.0000000), wk =   0.1066667
        k(   15) = (   0.0666667   0.5773503   0.0000000), wk =   0.0533333
        k(   16) = (   0.1333333   0.2309401   0.0000000), wk =   0.0533333
        k(   17) = (   0.1333333   0.3079201   0.0000000), wk =   0.1066667
        k(   18) = (   0.1333333   0.3849002   0.0000000), wk =   0.1066667
        k(   19) = (   0.1333333   0.4618802   0.0000000), wk =   0.1066667
        k(   20) = (   0.1333333   0.5388603   0.0000000), wk =   0.1066667
        k(   21) = (   0.2000000   0.3464102   0.0000000), wk =   0.0533333
        k(   22) = (   0.2000000   0.4233902   0.0000000), wk =   0.1066667
        k(   23) = (   0.2000000   0.5003702   0.0000000), wk =   0.1066667
        k(   24) = (   0.2000000   0.5773503   0.0000000), wk =   0.0533333
        k(   25) = (   0.2666667   0.4618802   0.0000000), wk =   0.0533333
        k(   26) = (   0.2666667   0.5388603   0.0000000), wk =   0.1066667
        k(   27) = (   0.3333333   0.5773503   0.0000000), wk =   0.0177778

     Dense  grid:    28161 G-vectors     FFT dimensions: (  20,  20, 192)

     Estimated max dynamical RAM per process >       1.65 MB

     Estimated total dynamical RAM >      52.65 MB
 ----2D----2D----2D----2D----2D----2D----2D----2D----2D----2D----2D----2D
  The code is running with the 2D cutoff
  Please refer to:
  Sohier, T., Calandra, M., & Mauri, F. (2017), 
  Density functional perturbation theory for gated two-dimensional heterostructu
 res:
  Theoretical developments and application to flexural phonons in graphene.
  Physical Review B, 96(7), 75448. https://doi.org/10.1103/PhysRevB.96.075448
 ----2D----2D----2D----2D----2D----2D----2D----2D----2D----2D----2D----2D

     Initial potential from superposition of free atoms

     starting charge    7.98607, renormalised to    8.00000

     negative rho (up, down):  1.058E-04 0.000E+00
     Starting wfcs are random

     total cpu time spent up to now is        0.1 secs

     Self-consistent Calculation

     iteration #  1     ecut=    50.00 Ry     beta= 0.70
     Davidson diagonalization with overlap
     ethr =  1.00E-02,  avg # of iterations = 12.0

     negative rho (up, down):  2.319E-07 0.000E+00

     total cpu time spent up to now is        0.6 secs

     total energy              =     -22.51980427 Ry
     estimated scf accuracy    <       0.45651530 Ry

     iteration #  2     ecut=    50.00 Ry     beta= 0.70
     Davidson diagonalization with overlap
     ethr =  5.71E-03,  avg # of iterations =  2.1

     negative rho (up, down):  1.320E-08 0.000E+00

     total cpu time spent up to now is        0.7 secs

     total energy              =     -22.58931563 Ry
     estimated scf accuracy    <       0.00276515 Ry

     iteration #  3     ecut=    50.00 Ry     beta= 0.70
     Davidson diagonalization with overlap
     ethr =  3.46E-05,  avg # of iterations = 10.9

     total cpu time spent up to now is        1.0 secs

     total energy              =     -22.59059693 Ry
     estimated scf accuracy    <       0.00018203 Ry

     iteration #  4     ecut=    50.00 Ry     beta= 0.70
     Davidson diagonalization with overlap
     c_bands:  1 eigenvalues not converged
     ethr =  2.28E-06,  avg # of iterations =  5.2

     total cpu time spent up to now is        1.1 secs

     total energy              =     -22.59063306 Ry
     estimated scf accuracy    <       0.00000199 Ry

     iteration #  5     ecut=    50.00 Ry     beta= 0.70
     Davidson diagonalization with overlap
     c_bands:  1 eigenvalues not converged
     ethr =  2.49E-08,  avg # of iterations =  4.5

     total cpu time spent up to now is        1.3 secs

     total energy              =     -22.59063567 Ry
     estimated scf accuracy    <       0.00000011 Ry

     iteration #  6     ecut=    50.00 Ry     beta= 0.70
     Davidson diagonalization with overlap
     ethr =  1.38E-09,  avg # of iterations =  2.0

     total cpu time spent up to now is        1.4 secs

     End of self-consistent calculation

          k = 0.0000 0.0000 0.0000 (  3529 PWs)   bands (ev):

   -25.7681 -13.5350  -5.6719  -1.0431  -0.2132   0.5530   0.9075   2.2299

          k = 0.0000 0.0770 0.0000 (  3556 PWs)   bands (ev):

   -25.6392 -13.3637  -6.1919  -6.0137  -0.8603  -0.0254   0.7408   1.0956

          k = 0.0000 0.1540 0.0000 (  3554 PWs)   bands (ev):

   -25.2532 -12.8559  -7.5567  -6.8410  -0.3102   0.5375   1.3048   1.6596

          k = 0.0000 0.2309 0.0000 (  3556 PWs)   bands (ev):

   -24.6126 -12.0181  -9.4417  -7.8531   0.6079   1.4739   2.2452   2.5981

          k = 0.0000 0.3079 0.0000 (  3556 PWs)   bands (ev):

   -23.7220 -11.5607 -10.8652  -8.8207   1.8924   2.7764   3.5619   3.9032

          k = 0.0000 0.3849 0.0000 (  3536 PWs)   bands (ev):

   -22.5877 -13.7283  -9.6130  -9.4338   3.5400   3.5557   4.5697   5.2545

          k = 0.0000 0.4619 0.0000 (  3498 PWs)   bands (ev):

   -21.2205 -15.8247 -10.1685  -7.8237   1.0547   5.5434   6.5552   7.3181

          k = 0.0000 0.5389 0.0000 (  3506 PWs)   bands (ev):

   -19.6504 -17.7789 -10.4520  -6.4185  -0.8548   7.8694   8.7784   8.9637

          k = 0.0667 0.1155 0.0000 (  3541 PWs)   bands (ev):

   -25.3817 -13.0246  -7.0490  -6.6658  -0.4935   0.3500   1.1168   1.4717

          k = 0.0667 0.1925 0.0000 (  3550 PWs)   bands (ev):

   -24.8685 -12.3514  -8.5521  -7.7047   0.2416   1.0998   1.8692   2.2231

          k = 0.0667 0.2694 0.0000 (  3552 PWs)   bands (ev):

   -24.1029 -11.3549 -10.4929  -8.7458   1.3440   2.2212   2.9982   3.3474

          k = 0.0667 0.3464 0.0000 (  3538 PWs)   bands (ev):

   -23.0906 -12.6085 -10.0584  -9.6401   2.8111   3.6807   4.5031   4.7330

          k = 0.0667 0.4234 0.0000 (  3514 PWs)   bands (ev):

   -21.8399 -14.7281 -10.3175  -8.5184   2.2753   4.6383   5.6204   6.3834

          k = 0.0667 0.5004 0.0000 (  3511 PWs)   bands (ev):

   -20.3666 -16.7535 -10.7380  -6.9202  -0.0345   6.8155   7.8389   8.6269

          k = 0.0667 0.5774 0.0000 (  3512 PWs)   bands (ev):

   -18.9021 -18.4081 -10.8783  -6.0340  -1.1683   9.1004   9.3116   9.5678

          k = 0.1333 0.2309 0.0000 (  3547 PWs)   bands (ev):

   -24.2303 -11.5193  -9.7963  -9.0685   1.1622   2.0354   2.8105   3.1611

          k = 0.1333 0.3079 0.0000 (  3540 PWs)   bands (ev):

   -23.3433 -11.5126 -10.3739 -10.2435   2.4485   3.3387   4.1281   4.4683

          k = 0.1333 0.3849 0.0000 (  3518 PWs)   bands (ev):

   -22.2148 -13.5241 -11.0639  -8.9506   3.3807   4.0966   5.0395   5.8211

          k = 0.1333 0.4619 0.0000 (  3519 PWs)   bands (ev):

   -20.8566 -15.5516 -11.6135  -7.3425   0.9885   6.0993   7.0581   7.8887

          k = 0.1333 0.5389 0.0000 (  3510 PWs)   bands (ev):

   -19.2945 -17.4678 -11.8898  -5.9128  -0.8662   8.4420   9.3773  10.3189

          k = 0.2000 0.3464 0.0000 (  3513 PWs)   bands (ev):

   -22.3402 -12.5527 -11.9051  -9.0964   3.8885   3.9161   4.8201   5.6340

          k = 0.2000 0.4234 0.0000 (  3495 PWs)   bands (ev):

   -21.1039 -14.2532 -12.8098  -7.5740   1.7692   5.7390   6.6365   7.5146

          k = 0.2000 0.5004 0.0000 (  3500 PWs)   bands (ev):

   -19.6503 -16.1584 -13.2346  -5.9599  -0.2588   7.9032   8.6308   9.7684

          k = 0.2000 0.5774 0.0000 (  3490 PWs)   bands (ev):

   -18.1497 -17.8212 -13.3718  -4.9974  -1.3684   9.6184  10.2988  10.4473

          k = 0.2667 0.4619 0.0000 (  3481 PWs)   bands (ev):

   -19.7717 -14.8769 -14.5429  -5.9968   0.0600   7.7224   8.3041   9.5794

          k = 0.2667 0.5389 0.0000 (  3474 PWs)   bands (ev):

   -18.2408 -16.5302 -14.9623  -4.4555  -1.5444   8.7104  10.0057  11.5222

          k = 0.3333 0.5774 0.0000 (  3462 PWs)   bands (ev):

   -16.6890 -16.6431 -16.6431  -2.9486  -2.9486   8.3357  12.1640  12.1641

     the Fermi energy is    -2.9062 ev

!    total energy              =     -22.59063569 Ry
     estimated scf accuracy    <          3.5E-09 Ry
     smearing contrib. (-TS)   =      -0.00003668 Ry
     internal energy E=F+TS    =     -22.59059901 Ry

     The total energy is F=E-TS. E is the sum of the following terms:
     one-electron contribution =    -501.35757572 Ry
     hartree contribution      =     251.61914868 Ry
     xc contribution           =      -7.60694140 Ry
     ewald contribution        =     234.75476943 Ry

     convergence has been achieved in   6 iterations

     Forces acting on atoms (cartesian axes, Ry/au):

     atom    1 type  1   force =    -0.00000000   -0.00000000    0.00000000
     atom    2 type  1   force =     0.00000000    0.00000000    0.00000000

     Total force =     0.000000     Total SCF correction =     0.000000


     Computing stress (Cartesian axis) and pressure

          total   stress  (Ry/bohr**3)                   (kbar)     P=      252.83
   0.00265309  -0.00000000   0.00000000          390.28       -0.00        0.00
  -0.00000000   0.00265309   0.00000000           -0.00      390.28        0.00
   0.00000000   0.00000000  -0.00015008            0.00        0.00      -22.08


     BFGS Geometry Optimization
     Energy error            =      0.0E+00
     Gradient error          =      1.7E-26
     Cell gradient error     =      2.7E-03


     number of scf cycles    =   1
     number of bfgs steps    =   0

     enthalpy new            =     -22.5906356883 Ry

     new trust radius        =       0.3221063809 bohr
     new conv_thr            =       0.0000000100 Ry

     new unit-cell volume =    670.40071 a.u.^3 (    99.34314 Ang^3 )
     density =      0.40152 g/cm^3

CELL_PARAMETERS (alat=  4.10000000)
   1.066327351  -0.000000000   0.000000000
  -0.533163676   0.923466575   0.000000000
   0.000000000   0.000000000   9.878048780

ATOMIC_POSITIONS (crystal)
C             0.3333333333        0.6666666667        0.5000000000
C             0.6666666667        0.3333333333        0.5000000000



     Writing output data file ./work/LiC410.save/
     NEW-OLD atomic charge density approx. for the potential

     negative rho (up, down):  1.726E-04 0.000E+00
     extrapolated charge    8.96260, renormalised to    8.00000

     total cpu time spent up to now is        1.5 secs

     Self-consistent Calculation

     iteration #  1     ecut=    50.00 Ry     beta= 0.70
     Davidson diagonalization with overlap
     c_bands:  1 eigenvalues not converged
     c_bands:  4 eigenvalues not converged
     c_bands:  2 eigenvalues not converged
     c_bands:  4 eigenvalues not converged
     c_bands:  4 eigenvalues not converged
     c_bands:  5 eigenvalues not converged
     c_bands:  5 eigenvalues not converged
     c_bands:  3 eigenvalues not converged
     c_bands:  5 eigenvalues not converged
     c_bands:  5 eigenvalues not converged
     c_bands:  4 eigenvalues not converged
     c_bands:  5 eigenvalues not converged
     c_bands:  5 eigenvalues not converged
     c_bands:  5 eigenvalues not converged
     c_bands:  5 eigenvalues not converged
     c_bands:  5 eigenvalues not converged
     c_bands:  5 eigenvalues not converged
     c_bands:  5 eigenvalues not converged
     c_bands:  5 eigenvalues not converged
     c_bands:  5 eigenvalues not converged
     c_bands:  5 eigenvalues not converged
     c_bands:  5 eigenvalues not converged
     c_bands:  5 eigenvalues not converged
     c_bands:  3 eigenvalues not converged
     c_bands:  2 eigenvalues not converged
     ethr =  1.00E-06,  avg # of iterations = 24.3

     negative rho (up, down):  1.740E-05 0.000E+00

     total cpu time spent up to now is        2.5 secs

     total energy              =     734.81712117 Ry
     estimated scf accuracy    <     413.43623147 Ry

     iteration #  2     ecut=    50.00 Ry     beta= 0.70
     Davidson diagonalization with overlap
     c_bands:  2 eigenvalues not converged
     c_bands:  2 eigenvalues not converged
     c_bands:  2 eigenvalues not converged
     c_bands:  2 eigenvalues not converged
     c_bands:  3 eigenvalues not converged
     c_bands:  2 eigenvalues not converged
     c_bands:  2 eigenvalues not converged
     c_bands:  4 eigenvalues not converged
     c_bands:  4 eigenvalues not converged
     c_bands:  3 eigenvalues not converged
     c_bands:  1 eigenvalues not converged
     c_bands:  4 eigenvalues not converged
     c_bands:  4 eigenvalues not converged
     c_bands:  4 eigenvalues not converged
     c_bands:  3 eigenvalues not converged
     c_bands:  3 eigenvalues not converged
     c_bands:  1 eigenvalues not converged
     c_bands:  5 eigenvalues not converged
     c_bands:  5 eigenvalues not converged
     ethr =  1.00E-02,  avg # of iterations = 40.4

     negative rho (up, down):  7.764E-06 0.000E+00

     total cpu time spent up to now is        4.0 secs

     total energy              =    -162.01157513 Ry
     estimated scf accuracy    <     210.10766084 Ry

     iteration #  3     ecut=    50.00 Ry     beta= 0.70
     Davidson diagonalization with overlap
     ethr =  1.00E-02,  avg # of iterations =  5.8

     negative rho (up, down):  1.131E-06 0.000E+00

     total cpu time spent up to now is        4.2 secs

     total energy              =     -54.36110906 Ry
     estimated scf accuracy    <      72.65400360 Ry

     iteration #  4     ecut=    50.00 Ry     beta= 0.70
     Davidson diagonalization with overlap
     ethr =  1.00E-02,  avg # of iterations =  3.6

     negative rho (up, down):  1.441E-06 0.000E+00

     total cpu time spent up to now is        4.4 secs

     total energy              =     -53.44732111 Ry
     estimated scf accuracy    <      16.81140094 Ry

     iteration #  5     ecut=    50.00 Ry     beta= 0.70
     Davidson diagonalization with overlap
     ethr =  1.00E-02,  avg # of iterations =  1.1

     negative rho (up, down):  4.899E-08 0.000E+00

     total cpu time spent up to now is        4.5 secs

     total energy              =     -26.27574243 Ry
     estimated scf accuracy    <      16.15437562 Ry

     iteration #  6     ecut=    50.00 Ry     beta= 0.70
     Davidson diagonalization with overlap
     ethr =  1.00E-02,  avg # of iterations =  4.0

     negative rho (up, down):  1.865E-07 0.000E+00

     total cpu time spent up to now is        4.7 secs

     total energy              =     -32.39601693 Ry
     estimated scf accuracy    <       2.07207806 Ry

     iteration #  7     ecut=    50.00 Ry     beta= 0.70
     Davidson diagonalization with overlap
     ethr =  1.00E-02,  avg # of iterations =  1.0

     negative rho (up, down):  1.757E-07 0.000E+00

     total cpu time spent up to now is        4.8 secs

     total energy              =     -32.59033040 Ry
     estimated scf accuracy    <       5.06564453 Ry

     iteration #  8     ecut=    50.00 Ry     beta= 0.70
     Davidson diagonalization with overlap
     ethr =  1.00E-02,  avg # of iterations =  1.0

     negative rho (up, down):  1.951E-07 0.000E+00

     total cpu time spent up to now is        4.9 secs

     total energy              =     -32.77685950 Ry
     estimated scf accuracy    <       5.16079917 Ry

     iteration #  9     ecut=    50.00 Ry     beta= 0.70
     Davidson diagonalization with overlap
     ethr =  1.00E-02,  avg # of iterations =  1.0

     total cpu time spent up to now is        5.0 secs

     total energy              =     -22.52896130 Ry
     estimated scf accuracy    <       5.26786550 Ry

     iteration # 10     ecut=    50.00 Ry     beta= 0.70
     Davidson diagonalization with overlap
     ethr =  1.00E-02,  avg # of iterations =  3.7

     total cpu time spent up to now is        5.1 secs

     total energy              =     -22.72474617 Ry
     estimated scf accuracy    <       0.02173426 Ry

     iteration # 11     ecut=    50.00 Ry     beta= 0.70
     Davidson diagonalization with overlap
     ethr =  2.72E-04,  avg # of iterations = 11.5

     negative rho (up, down):  4.345E-04 0.000E+00

     total cpu time spent up to now is        5.4 secs

     total energy              =     -22.72738581 Ry
     estimated scf accuracy    <       0.01149833 Ry

     iteration # 12     ecut=    50.00 Ry     beta= 0.70
     Davidson diagonalization with overlap
     ethr =  1.44E-04,  avg # of iterations =  1.0

     negative rho (up, down):  1.056E-03 0.000E+00

     total cpu time spent up to now is        5.5 secs

     total energy              =     -22.72844316 Ry
     estimated scf accuracy    <       0.00534894 Ry

     iteration # 13     ecut=    50.00 Ry     beta= 0.70
     Davidson diagonalization with overlap
     ethr =  6.69E-05,  avg # of iterations =  1.1

     negative rho (up, down):  4.762E-03 0.000E+00

     total cpu time spent up to now is        5.6 secs

     total energy              =     -22.73233294 Ry
     estimated scf accuracy    <       0.00564860 Ry

     iteration # 14     ecut=    50.00 Ry     beta= 0.70
     Davidson diagonalization with overlap
     ethr =  6.69E-05,  avg # of iterations =  2.8

     negative rho (up, down):  4.963E-03 0.000E+00

     total cpu time spent up to now is        5.8 secs

     total energy              =     -22.73261904 Ry
     estimated scf accuracy    <       0.01248346 Ry

     iteration # 15     ecut=    50.00 Ry     beta= 0.70
     Davidson diagonalization with overlap
     ethr =  6.69E-05,  avg # of iterations =  1.0

     negative rho (up, down):  5.871E-03 0.000E+00

     total cpu time spent up to now is        5.9 secs

     total energy              =     -22.73205578 Ry
     estimated scf accuracy    <       0.01176930 Ry

     iteration # 16     ecut=    50.00 Ry     beta= 0.70
     Davidson diagonalization with overlap
     ethr =  6.69E-05,  avg # of iterations =  1.1

     negative rho (up, down):  5.799E-03 0.000E+00

     total cpu time spent up to now is        6.0 secs

     total energy              =     -22.73219955 Ry
     estimated scf accuracy    <       0.01069402 Ry

     iteration # 17     ecut=    50.00 Ry     beta= 0.70
     Davidson diagonalization with overlap
     ethr =  6.69E-05,  avg # of iterations =  1.0

     negative rho (up, down):  9.545E-03 0.000E+00

     total cpu time spent up to now is        6.1 secs

     total energy              =     -22.73663483 Ry
     estimated scf accuracy    <       0.01091378 Ry

     iteration # 18     ecut=    50.00 Ry     beta= 0.70
     Davidson diagonalization with overlap
     ethr =  6.69E-05,  avg # of iterations =  1.5

     negative rho (up, down):  3.907E-04 0.000E+00

     total cpu time spent up to now is        6.2 secs

     total energy              =     -22.72459440 Ry
     estimated scf accuracy    <       0.02056137 Ry

     iteration # 19     ecut=    50.00 Ry     beta= 0.70
     Davidson diagonalization with overlap
     ethr =  6.69E-05,  avg # of iterations =  6.0

     negative rho (up, down):  1.772E-05 0.000E+00

     total cpu time spent up to now is        6.4 secs

     total energy              =     -22.72734049 Ry
     estimated scf accuracy    <       0.00036936 Ry

     iteration # 20     ecut=    50.00 Ry     beta= 0.70
     Davidson diagonalization with overlap
     ethr =  4.62E-06,  avg # of iterations =  7.4

     negative rho (up, down):  5.011E-06 0.000E+00

     total cpu time spent up to now is        6.6 secs

     total energy              =     -22.72737719 Ry
     estimated scf accuracy    <       0.00002422 Ry

     iteration # 21     ecut=    50.00 Ry     beta= 0.70
     Davidson diagonalization with overlap
     ethr =  3.03E-07,  avg # of iterations =  5.1

     total cpu time spent up to now is        6.8 secs

     total energy              =     -22.72738060 Ry
     estimated scf accuracy    <       0.00000449 Ry

     iteration # 22     ecut=    50.00 Ry     beta= 0.70
     Davidson diagonalization with overlap
     ethr =  5.61E-08,  avg # of iterations =  1.6

     negative rho (up, down):  2.433E-08 0.000E+00

     total cpu time spent up to now is        6.9 secs

     total energy              =     -22.72738054 Ry
     estimated scf accuracy    <       0.00000116 Ry

     iteration # 23     ecut=    50.00 Ry     beta= 0.70
     Davidson diagonalization with overlap
     ethr =  1.45E-08,  avg # of iterations =  2.0

     total cpu time spent up to now is        7.0 secs

     total energy              =     -22.72738070 Ry
     estimated scf accuracy    <       0.00000002 Ry

     iteration # 24     ecut=    50.00 Ry     beta= 0.70
     Davidson diagonalization with overlap
     ethr =  3.07E-10,  avg # of iterations =  3.5

     total cpu time spent up to now is        7.1 secs

     End of self-consistent calculation

          k = 0.0000 0.0000 0.0000 (  3529 PWs)   bands (ev):

   -24.7945 -12.6587  -6.5440  -6.5440  -1.0183  -0.2154   0.5551   0.9140

          k = 0.0000 0.0722 0.0000 (  3556 PWs)   bands (ev):

   -24.6779 -12.5107  -7.0272  -6.8336  -0.8569  -0.0505   0.7203   1.0792

          k = 0.0000 0.1444 0.0000 (  3554 PWs)   bands (ev):

   -24.3279 -12.0735  -8.2700  -7.5223  -0.3721   0.4433   1.2162   1.5740

          k = 0.0000 0.2166 0.0000 (  3556 PWs)   bands (ev):

   -23.7471 -11.3531  -9.9812  -8.3735   0.4362   1.2644   2.0430   2.3970

          k = 0.0000 0.2888 0.0000 (  3556 PWs)   bands (ev):

   -22.9388 -11.9016 -10.3645  -9.1934   1.5663   2.4007   3.2001   3.5270

          k = 0.0000 0.3610 0.0000 (  3536 PWs)   bands (ev):

   -21.9084 -13.8668  -9.8659  -9.1423   2.0583   3.0139   3.9309   4.6845

          k = 0.0000 0.4332 0.0000 (  3498 PWs)   bands (ev):

   -20.6652 -15.7650 -10.3393  -7.7808  -0.0642   4.7614   5.7111   5.8340

          k = 0.0000 0.5053 0.0000 (  3506 PWs)   bands (ev):

   -19.2328 -17.5489 -10.5806  -6.6174  -1.6352   5.7155   6.8842   7.8142

          k = 0.0625 0.1083 0.0000 (  3541 PWs)   bands (ev):

   -24.4445 -12.2187  -7.8158  -7.3697  -0.5336   0.2788   1.0509   1.4091

          k = 0.0625 0.1805 0.0000 (  3550 PWs)   bands (ev):

   -23.9791 -11.6395  -9.1865  -8.2512   0.1135   0.9365   1.7125   2.0683

          k = 0.0625 0.2527 0.0000 (  3552 PWs)   bands (ev):

   -23.2846 -10.9410 -10.7838  -9.1461   1.0835   1.9189   2.7048   3.0530

          k = 0.0625 0.3249 0.0000 (  3538 PWs)   bands (ev):

   -22.3655 -12.8538  -9.9163  -9.6743   2.3737   2.9891   3.3903   4.0270

          k = 0.0625 0.3971 0.0000 (  3514 PWs)   bands (ev):

   -21.2290 -14.7719 -10.5001  -8.3646   0.9334   3.9780   4.8887   5.6725

          k = 0.0625 0.4692 0.0000 (  3511 PWs)   bands (ev):

   -19.8894 -16.6094 -10.8635  -7.0241  -0.9821   5.8484   6.3303   6.8298

          k = 0.0625 0.5414 0.0000 (  3512 PWs)   bands (ev):

   -18.5423 -18.1298 -10.9833  -6.3002  -1.9053   6.2205   8.0545   8.1990

          k = 0.1250 0.2166 0.0000 (  3547 PWs)   bands (ev):

   -23.4002 -10.9248 -10.3606  -9.3981   0.9231   1.7567   2.5399   2.8909

          k = 0.1250 0.2888 0.0000 (  3540 PWs)   bands (ev):

   -22.5952 -11.9018 -10.4475  -9.9433   2.0543   2.8950   3.6979   3.8468

          k = 0.1250 0.3610 0.0000 (  3518 PWs)   bands (ev):

   -21.5703 -13.6943 -11.1971  -8.7288   1.7995   3.5029   4.3758   5.1854

          k = 0.1250 0.4332 0.0000 (  3519 PWs)   bands (ev):

   -20.3375 -15.5187 -11.6931  -7.3684  -0.1886   5.2606   6.1412   6.9967

          k = 0.1250 0.5053 0.0000 (  3510 PWs)   bands (ev):

   -18.9226 -17.2496 -11.9394  -6.1819  -1.7124   7.2831   7.6431   8.1279

          k = 0.1876 0.3249 0.0000 (  3513 PWs)   bands (ev):

   -21.6845 -12.9417 -11.8430  -8.8518   2.1694   3.3439   4.1931   5.0211

          k = 0.1876 0.3971 0.0000 (  3495 PWs)   bands (ev):

   -20.5635 -14.3994 -12.7411  -7.5579   0.3946   4.9447   5.7709   6.6729

          k = 0.1876 0.4692 0.0000 (  3500 PWs)   bands (ev):

   -19.2494 -16.0708 -13.1753  -6.2003  -1.2920   6.8407   7.4620   8.6488

          k = 0.1876 0.5414 0.0000 (  3490 PWs)   bands (ev):

   -17.9737 -17.4827 -13.3092  -5.4070  -2.2007   8.2504   8.9030   9.0649

          k = 0.2501 0.4332 0.0000 (  3481 PWs)   bands (ev):

   -19.3602 -15.1438 -14.1349  -6.2227  -1.0734   6.6823   7.1834   8.4852

          k = 0.2501 0.5053 0.0000 (  3474 PWs)   bands (ev):

   -18.0045 -16.4290 -14.6989  -4.9294  -2.4288   7.5554   8.6658  10.1321

          k = 0.3126 0.5414 0.0000 (  3462 PWs)   bands (ev):

   -16.8358 -16.8358 -15.6842  -3.6467  -3.6467   7.2793  10.4132  10.4135

     the Fermi energy is    -3.6467 ev

!    total energy              =     -22.72738072 Ry
     estimated scf accuracy    <          4.9E-10 Ry
     smearing contrib. (-TS)   =      -0.00005015 Ry
     internal energy E=F+TS    =     -22.72733057 Ry

     The total energy is F=E-TS. E is the sum of the following terms:
     one-electron contribution =    -440.06888768 Ry
     hartree contribution      =     220.79840840 Ry
     xc contribution           =      -7.29519302 Ry
     ewald contribution        =     203.83834173 Ry

     convergence has been achieved in  24 iterations

     Forces acting on atoms (cartesian axes, Ry/au):

     atom    1 type  1   force =    -0.00000000   -0.00000000    0.00000000
     atom    2 type  1   force =     0.00000000    0.00000000    0.00000000

     Total force =     0.000000     Total SCF correction =     0.000000


     Computing stress (Cartesian axis) and pressure

          total   stress  (Ry/bohr**3)                   (kbar)     P=       76.17
   0.00085288   0.00000000   0.00000000          125.46        0.00        0.00
   0.00000000   0.00085288   0.00000000            0.00      125.46        0.00
   0.00000000   0.00000000  -0.00015232            0.00        0.00      -22.41

     Energy error            =      1.4E-01
     Gradient error          =      1.6E-26
     Cell gradient error     =      8.5E-04


     number of scf cycles    =   2
     number of bfgs steps    =   1

     enthalpy old            =     -22.5906356883 Ry
     enthalpy new            =     -22.7273807231 Ry

     CASE: enthalpy_new < enthalpy_old

     new trust radius        =       0.1680045124 bohr
     new conv_thr            =            1.0E-10 Ry

     new unit-cell volume =    714.60624 a.u.^3 (   105.89372 Ang^3 )
     density =      0.37668 g/cm^3

CELL_PARAMETERS (alat=  4.10000000)
   1.100922426   0.000000000   0.000000000
  -0.550461213   0.953426788   0.000000000
   0.000000000   0.000000000   9.878048780

ATOMIC_POSITIONS (crystal)
C             0.3333333333        0.6666666667        0.5000000000
C             0.6666666667        0.3333333333        0.5000000000



     Writing output data file ./work/LiC410.save/
     NEW-OLD atomic charge density approx. for the potential

     negative rho (up, down):  9.617E-05 0.000E+00
     extrapolated charge    8.49402, renormalised to    8.00000

     total cpu time spent up to now is        7.2 secs

     Self-consistent Calculation

     iteration #  1     ecut=    50.00 Ry     beta= 0.70
     Davidson diagonalization with overlap
     c_bands:  1 eigenvalues not converged
     c_bands:  1 eigenvalues not converged
     c_bands:  2 eigenvalues not converged
     c_bands:  4 eigenvalues not converged
     c_bands:  3 eigenvalues not converged
     c_bands:  2 eigenvalues not converged
     c_bands:  1 eigenvalues not converged
     c_bands:  4 eigenvalues not converged
     c_bands:  3 eigenvalues not converged
     c_bands:  4 eigenvalues not converged
     c_bands:  3 eigenvalues not converged
     c_bands:  2 eigenvalues not converged
     c_bands:  2 eigenvalues not converged
     c_bands:  4 eigenvalues not converged
     c_bands:  4 eigenvalues not converged
     c_bands:  4 eigenvalues not converged
     c_bands:  3 eigenvalues not converged
     c_bands:  4 eigenvalues not converged
     c_bands:  5 eigenvalues not converged
     c_bands:  5 eigenvalues not converged
     c_bands:  5 eigenvalues not converged
     c_bands:  5 eigenvalues not converged
     ethr =  1.00E-06,  avg # of iterations = 20.2

     negative rho (up, down):  4.091E-06 0.000E+00

     total cpu time spent up to now is        7.9 secs

     total energy              =     634.68247108 Ry
     estimated scf accuracy    <     364.34122104 Ry

     iteration #  2     ecut=    50.00 Ry     beta= 0.70
     Davidson diagonalization with overlap
     c_bands:  2 eigenvalues not converged
     c_bands:  5 eigenvalues not converged
     c_bands:  1 eigenvalues not converged
     c_bands:  4 eigenvalues not converged
     c_bands:  4 eigenvalues not converged
     c_bands:  1 eigenvalues not converged
     c_bands:  2 eigenvalues not converged
     c_bands:  2 eigenvalues not converged
     c_bands:  4 eigenvalues not converged
     c_bands:  3 eigenvalues not converged
     c_bands:  2 eigenvalues not converged
     ethr =  1.00E-02,  avg # of iterations = 37.2

     negative rho (up, down):  1.393E-06 0.000E+00

     total cpu time spent up to now is        9.4 secs

     total energy              =    -143.68843464 Ry
     estimated scf accuracy    <     185.54771729 Ry

     iteration #  3     ecut=    50.00 Ry     beta= 0.70
     Davidson diagonalization with overlap
     ethr =  1.00E-02,  avg # of iterations =  4.3

     negative rho (up, down):  8.265E-08 0.000E+00

     total cpu time spent up to now is        9.6 secs

     total energy              =     -52.01872104 Ry
     estimated scf accuracy    <      64.11781877 Ry

     iteration #  4     ecut=    50.00 Ry     beta= 0.70
     Davidson diagonalization with overlap
     ethr =  1.00E-02,  avg # of iterations =  3.6

     negative rho (up, down):  1.818E-07 0.000E+00

     total cpu time spent up to now is        9.7 secs

     total energy              =     -51.53443544 Ry
     estimated scf accuracy    <      15.74679313 Ry

     iteration #  5     ecut=    50.00 Ry     beta= 0.70
     Davidson diagonalization with overlap
     ethr =  1.00E-02,  avg # of iterations =  1.4

     total cpu time spent up to now is        9.8 secs

     total energy              =     -24.88239909 Ry
     estimated scf accuracy    <      15.37598399 Ry

     iteration #  6     ecut=    50.00 Ry     beta= 0.70
     Davidson diagonalization with overlap
     ethr =  1.00E-02,  avg # of iterations =  3.8

     negative rho (up, down):  1.783E-08 0.000E+00

     total cpu time spent up to now is       10.0 secs

     total energy              =     -34.21116876 Ry
     estimated scf accuracy    <       1.35037786 Ry

     iteration #  7     ecut=    50.00 Ry     beta= 0.70
     Davidson diagonalization with overlap
     ethr =  1.00E-02,  avg # of iterations =  1.9

     total cpu time spent up to now is       10.1 secs

     total energy              =     -27.56722678 Ry
     estimated scf accuracy    <       6.06575716 Ry

     iteration #  8     ecut=    50.00 Ry     beta= 0.70
     Davidson diagonalization with overlap
     ethr =  1.00E-02,  avg # of iterations =  1.4

     total cpu time spent up to now is       10.2 secs

     total energy              =     -26.95735375 Ry
     estimated scf accuracy    <       2.60476888 Ry

     iteration #  9     ecut=    50.00 Ry     beta= 0.70
     Davidson diagonalization with overlap
     ethr =  1.00E-02,  avg # of iterations =  1.0

     total cpu time spent up to now is       10.3 secs

     total energy              =     -26.00494832 Ry
     estimated scf accuracy    <       2.24928480 Ry

     iteration # 10     ecut=    50.00 Ry     beta= 0.70
     Davidson diagonalization with overlap
     ethr =  1.00E-02,  avg # of iterations =  1.0

     negative rho (up, down):  2.565E-04 0.000E+00

     total cpu time spent up to now is       10.4 secs

     total energy              =     -22.62220267 Ry
     estimated scf accuracy    <       1.74895822 Ry

     iteration # 11     ecut=    50.00 Ry     beta= 0.70
     Davidson diagonalization with overlap
     ethr =  1.00E-02,  avg # of iterations =  6.1

     total cpu time spent up to now is       10.6 secs

     total energy              =     -22.75909491 Ry
     estimated scf accuracy    <       0.17337983 Ry

     iteration # 12     ecut=    50.00 Ry     beta= 0.70
     Davidson diagonalization with overlap
     ethr =  2.17E-03,  avg # of iterations =  4.6

     negative rho (up, down):  2.173E-03 0.000E+00

     total cpu time spent up to now is       10.8 secs

     total energy              =     -22.72302030 Ry
     estimated scf accuracy    <       0.08788657 Ry

     iteration # 13     ecut=    50.00 Ry     beta= 0.70
     Davidson diagonalization with overlap
     ethr =  1.10E-03,  avg # of iterations =  2.3

     negative rho (up, down):  3.886E-03 0.000E+00

     total cpu time spent up to now is       10.9 secs

     total energy              =     -22.74018765 Ry
     estimated scf accuracy    <       0.00567861 Ry

     iteration # 14     ecut=    50.00 Ry     beta= 0.70
     Davidson diagonalization with overlap
     ethr =  7.10E-05,  avg # of iterations =  7.8

     negative rho (up, down):  1.516E-02 0.000E+00

     total cpu time spent up to now is       11.1 secs

     total energy              =     -22.76964639 Ry
     estimated scf accuracy    <       0.01211760 Ry

     iteration # 15     ecut=    50.00 Ry     beta= 0.70
     Davidson diagonalization with overlap
     ethr =  7.10E-05,  avg # of iterations =  5.4

     negative rho (up, down):  1.857E-02 0.000E+00

     total cpu time spent up to now is       11.3 secs

     total energy              =     -22.76059895 Ry
     estimated scf accuracy    <       0.04438390 Ry

     iteration # 16     ecut=    50.00 Ry     beta= 0.70
     Davidson diagonalization with overlap
     ethr =  7.10E-05,  avg # of iterations =  3.6

     negative rho (up, down):  8.312E-03 0.000E+00

     total cpu time spent up to now is       11.4 secs

     total energy              =     -22.75692256 Ry
     estimated scf accuracy    <       0.02232358 Ry

     iteration # 17     ecut=    50.00 Ry     beta= 0.70
     Davidson diagonalization with overlap
     ethr =  7.10E-05,  avg # of iterations =  5.1

     negative rho (up, down):  8.638E-03 0.000E+00

     total cpu time spent up to now is       11.6 secs

     total energy              =     -22.75360305 Ry
     estimated scf accuracy    <       0.01476867 Ry

     iteration # 18     ecut=    50.00 Ry     beta= 0.70
     Davidson diagonalization with overlap
     ethr =  7.10E-05,  avg # of iterations =  1.6

     negative rho (up, down):  1.555E-02 0.000E+00

     total cpu time spent up to now is       11.7 secs

     total energy              =     -22.75069783 Ry
     estimated scf accuracy    <       0.00743954 Ry

     iteration # 19     ecut=    50.00 Ry     beta= 0.70
     Davidson diagonalization with overlap
     ethr =  7.10E-05,  avg # of iterations =  3.4

     negative rho (up, down):  1.203E-02 0.000E+00

     total cpu time spent up to now is       11.8 secs

     total energy              =     -22.75115034 Ry
     estimated scf accuracy    <       0.00084239 Ry

     iteration # 20     ecut=    50.00 Ry     beta= 0.70
     Davidson diagonalization with overlap
     c_bands:  1 eigenvalues not converged
     c_bands:  1 eigenvalues not converged
     ethr =  1.05E-05,  avg # of iterations =  7.4

     negative rho (up, down):  5.472E-03 0.000E+00

     total cpu time spent up to now is       12.0 secs

     total energy              =     -22.75077503 Ry
     estimated scf accuracy    <       0.00077232 Ry

     iteration # 21     ecut=    50.00 Ry     beta= 0.70
     Davidson diagonalization with overlap
     c_bands:  1 eigenvalues not converged
     ethr =  9.65E-06,  avg # of iterations =  8.0

     negative rho (up, down):  9.536E-05 0.000E+00

     total cpu time spent up to now is       12.2 secs

     total energy              =     -22.75027334 Ry
     estimated scf accuracy    <       0.00075550 Ry

     iteration # 22     ecut=    50.00 Ry     beta= 0.70
     Davidson diagonalization with overlap
     c_bands:  1 eigenvalues not converged
     c_bands:  1 eigenvalues not converged
     c_bands:  1 eigenvalues not converged
     ethr =  9.44E-06,  avg # of iterations =  9.1

     negative rho (up, down):  7.676E-06 0.000E+00

     total cpu time spent up to now is       12.5 secs

     total energy              =     -22.75032357 Ry
     estimated scf accuracy    <       0.00005108 Ry

     iteration # 23     ecut=    50.00 Ry     beta= 0.70
     Davidson diagonalization with overlap
     c_bands:  1 eigenvalues not converged
     ethr =  6.39E-07,  avg # of iterations =  7.1

     negative rho (up, down):  1.376E-06 0.000E+00

     total cpu time spent up to now is       12.7 secs

     total energy              =     -22.75033030 Ry
     estimated scf accuracy    <       0.00000050 Ry

     iteration # 24     ecut=    50.00 Ry     beta= 0.70
     Davidson diagonalization with overlap
     ethr =  6.29E-09,  avg # of iterations =  4.1

     total cpu time spent up to now is       12.8 secs

     total energy              =     -22.75033061 Ry
     estimated scf accuracy    <       0.00000005 Ry

     iteration # 25     ecut=    50.00 Ry     beta= 0.70
     Davidson diagonalization with overlap
     ethr =  5.90E-10,  avg # of iterations =  2.3

     total cpu time spent up to now is       12.9 secs

     total energy              =     -22.75033062 Ry
     estimated scf accuracy    <          1.8E-10 Ry

     iteration # 26     ecut=    50.00 Ry     beta= 0.70
     Davidson diagonalization with overlap
     ethr =  2.25E-12,  avg # of iterations =  3.9

     total cpu time spent up to now is       13.1 secs

     End of self-consistent calculation

          k = 0.0000 0.0000 0.0000 (  3529 PWs)   bands (ev):

   -24.3183 -12.2644  -6.8988  -6.8988  -1.0039  -0.2165   0.5547   0.9144

          k =-0.0000 0.0699 0.0000 (  3556 PWs)   bands (ev):

   -24.2076 -12.1269  -7.3693  -7.1668  -0.8522  -0.0620   0.7098   1.0691

          k =-0.0000 0.1398 0.0000 (  3554 PWs)   bands (ev):

   -23.8755 -11.7217  -8.5630  -7.7956  -0.3968   0.4006   1.1751   1.5327

          k =-0.0000 0.2098 0.0000 (  3556 PWs)   bands (ev):

   -23.3241 -11.0546 -10.1990  -8.5762   0.3621   1.1694   1.9506   2.3033

          k =-0.0000 0.2797 0.0000 (  3556 PWs)   bands (ev):

   -22.5572 -12.0287 -10.1404  -9.3309   1.4226   2.2263   3.0354   3.2883

          k =-0.0000 0.3496 0.0000 (  3536 PWs)   bands (ev):

   -21.5804 -13.8966  -9.9500  -9.0129   1.3491   2.7794   3.6565   4.4091

          k =-0.0000 0.4195 0.0000 (  3498 PWs)   bands (ev):

   -20.4062 -15.6913 -10.3867  -7.7632  -0.5840   4.3166   4.6094   5.3284

          k =-0.0000 0.4895 0.0000 (  3506 PWs)   bands (ev):

   -19.0854 -17.3486 -10.6091  -6.7064  -2.0039   4.3723   6.3962   7.2912

          k = 0.0606 0.1049 0.0000 (  3541 PWs)   bands (ev):

   -23.9861 -11.8563  -8.1312  -7.6523  -0.5485   0.2465   1.0200   1.3782

          k = 0.0606 0.1748 0.0000 (  3550 PWs)   bands (ev):

   -23.5444 -11.3197  -9.4473  -8.4639   0.0591   0.8625   1.6406   1.9957

          k = 0.0606 0.2447 0.0000 (  3552 PWs)   bands (ev):

   -22.8852 -11.1199 -10.5278  -9.2928   0.9695   1.7817   2.5713   2.9164

          k = 0.0606 0.3147 0.0000 (  3538 PWs)   bands (ev):

   -22.0135 -12.9378 -10.0074  -9.5031   2.1799   2.2768   3.0580   3.8105

          k = 0.0606 0.3846 0.0000 (  3514 PWs)   bands (ev):

   -20.9375 -14.7558 -10.5491  -8.2973   0.3131   3.6818   4.5580   5.0450

          k = 0.0606 0.4545 0.0000 (  3511 PWs)   bands (ev):

   -19.6798 -16.4860 -10.8871  -7.0719  -1.4242   4.8815   5.5224   6.3715

          k = 0.0606 0.5244 0.0000 (  3512 PWs)   bands (ev):

   -18.5529 -17.7787 -10.9975  -6.4186  -2.2549   4.8535   7.4911   7.6429

          k = 0.1211 0.2098 0.0000 (  3547 PWs)   bands (ev):

   -22.9949 -10.6582 -10.5907  -9.5135   0.8188   1.6306   2.4167   2.7661

          k = 0.1211 0.2797 0.0000 (  3540 PWs)   bands (ev):

   -22.2311 -12.0590 -10.4981  -9.7510   1.8800   2.6826   2.9546   3.5027

          k = 0.1211 0.3496 0.0000 (  3518 PWs)   bands (ev):

   -21.2599 -13.7493 -11.2123  -8.6309   1.0747   3.2387   4.0777   4.8971

          k = 0.1211 0.4195 0.0000 (  3519 PWs)   bands (ev):

   -20.0967 -15.4679 -11.6842  -7.3819  -0.7303   4.8843   5.7255   6.2873

          k = 0.1211 0.4895 0.0000 (  3510 PWs)   bands (ev):

   -18.7932 -17.0690 -11.9172  -6.3030  -2.1077   6.1800   6.8322   7.5586

          k = 0.1817 0.3147 0.0000 (  3513 PWs)   bands (ev):

   -21.3679 -13.0907 -11.7748  -8.7436   1.3909   3.0894   3.9091   4.7436

          k = 0.1817 0.3846 0.0000 (  3495 PWs)   bands (ev):

   -20.3081 -14.4548 -12.6427  -7.5527  -0.2292   4.5899   5.3790   6.2918

          k = 0.1817 0.4545 0.0000 (  3500 PWs)   bands (ev):

   -19.0764 -16.0014 -13.0793  -6.3099  -1.7644   6.3632   6.9345   8.0242

          k = 0.1817 0.5244 0.0000 (  3490 PWs)   bands (ev):

   -17.9956 -17.2052 -13.2127  -5.5906  -2.5854   7.6442   7.9764   8.2713

          k = 0.2422 0.4195 0.0000 (  3481 PWs)   bands (ev):

   -19.1762 -15.2306 -13.8903  -6.3262  -1.5859   6.2158   6.6796   7.9899

          k = 0.2422 0.4895 0.0000 (  3474 PWs)   bands (ev):

   -17.9298 -16.3812 -14.4560  -5.1434  -2.8298   7.0401   8.0583   9.5046

          k = 0.3028 0.5244 0.0000 (  3462 PWs)   bands (ev):

   -16.8817 -16.8817 -15.2172  -3.9615  -3.9615   6.8063   9.5679   9.5679

     the Fermi energy is    -3.9615 ev

!    total energy              =     -22.75033062 Ry
     estimated scf accuracy    <          8.2E-11 Ry
     smearing contrib. (-TS)   =      -0.00005015 Ry
     internal energy E=F+TS    =     -22.75028047 Ry

     The total energy is F=E-TS. E is the sum of the following terms:
     one-electron contribution =    -412.47231032 Ry
     hartree contribution      =     206.92338424 Ry
     xc contribution           =      -7.14804475 Ry
     ewald contribution        =     189.94669035 Ry

     convergence has been achieved in  26 iterations

     Forces acting on atoms (cartesian axes, Ry/au):

     atom    1 type  1   force =    -0.00000000   -0.00000000    0.00000000
     atom    2 type  1   force =     0.00000000    0.00000000    0.00000000

     Total force =     0.000000     Total SCF correction =     0.000000


     Computing stress (Cartesian axis) and pressure

          total   stress  (Ry/bohr**3)                   (kbar)     P=       13.82
   0.00021728   0.00000000   0.00000000           31.96        0.00        0.00
   0.00000000   0.00021728   0.00000000            0.00       31.96        0.00
   0.00000000  -0.00000000  -0.00015283            0.00       -0.00      -22.48

     Energy error            =      2.3E-02
     Gradient error          =      1.6E-26
     Cell gradient error     =      2.2E-04


     number of scf cycles    =   3
     number of bfgs steps    =   2

     enthalpy old            =     -22.7273807231 Ry
     enthalpy new            =     -22.7503306206 Ry

     CASE: enthalpy_new < enthalpy_old

     new trust radius        =       0.0599612441 bohr
     new conv_thr            =            1.0E-10 Ry

     new unit-cell volume =    730.72504 a.u.^3 (   108.28228 Ang^3 )
     density =      0.36837 g/cm^3

CELL_PARAMETERS (alat=  4.10000000)
   1.113269497   0.000000000   0.000000000
  -0.556634749   0.964119666   0.000000000
   0.000000000   0.000000000   9.878048780

ATOMIC_POSITIONS (crystal)
C             0.3333333333        0.6666666667        0.5000000000
C             0.6666666667        0.3333333333        0.5000000000



     Writing output data file ./work/LiC410.save/
     NEW-OLD atomic charge density approx. for the potential

     negative rho (up, down):  4.782E-05 0.000E+00
     extrapolated charge    8.17616, renormalised to    8.00000

     total cpu time spent up to now is       13.2 secs

     Self-consistent Calculation

     iteration #  1     ecut=    50.00 Ry     beta= 0.70
     Davidson diagonalization with overlap
     c_bands:  1 eigenvalues not converged
     c_bands:  1 eigenvalues not converged
     c_bands:  1 eigenvalues not converged
     c_bands:  1 eigenvalues not converged
     c_bands:  3 eigenvalues not converged
     c_bands:  2 eigenvalues not converged
     c_bands:  1 eigenvalues not converged
     c_bands:  1 eigenvalues not converged
     c_bands:  2 eigenvalues not converged
     ethr =  1.00E-06,  avg # of iterations = 17.6

     total cpu time spent up to now is       13.7 secs

     total energy              =     205.36144486 Ry
     estimated scf accuracy    <     131.08708956 Ry

     iteration #  2     ecut=    50.00 Ry     beta= 0.70
     Davidson diagonalization with overlap
     c_bands:  5 eigenvalues not converged
     c_bands:  5 eigenvalues not converged
     c_bands:  5 eigenvalues not converged
     c_bands:  5 eigenvalues not converged
     c_bands:  4 eigenvalues not converged
     c_bands:  5 eigenvalues not converged
     c_bands:  4 eigenvalues not converged
     c_bands:  5 eigenvalues not converged
     c_bands:  1 eigenvalues not converged
     c_bands:  1 eigenvalues not converged
     c_bands:  4 eigenvalues not converged
     c_bands:  4 eigenvalues not converged
     c_bands:  5 eigenvalues not converged
     c_bands:  3 eigenvalues not converged
     c_bands:  1 eigenvalues not converged
     c_bands:  5 eigenvalues not converged
     c_bands:  5 eigenvalues not converged
     c_bands:  5 eigenvalues not converged
     c_bands:  5 eigenvalues not converged
     c_bands:  5 eigenvalues not converged
     c_bands:  5 eigenvalues not converged
     ethr =  1.00E-02,  avg # of iterations = 21.2

     total cpu time spent up to now is       14.4 secs

     total energy              =     -63.57011839 Ry
     estimated scf accuracy    <      68.31548084 Ry

     iteration #  3     ecut=    50.00 Ry     beta= 0.70
     Davidson diagonalization with overlap
     c_bands:  1 eigenvalues not converged
     ethr =  1.00E-02,  avg # of iterations =  6.9

     total cpu time spent up to now is       14.6 secs

     total energy              =     -34.80927365 Ry
     estimated scf accuracy    <      23.43135514 Ry

     iteration #  4     ecut=    50.00 Ry     beta= 0.70
     Davidson diagonalization with overlap
     ethr =  1.00E-02,  avg # of iterations =  3.3

     total cpu time spent up to now is       14.8 secs

     total energy              =     -30.54972831 Ry
     estimated scf accuracy    <       7.09961717 Ry

     iteration #  5     ecut=    50.00 Ry     beta= 0.70
     Davidson diagonalization with overlap
     ethr =  1.00E-02,  avg # of iterations =  1.1

     total cpu time spent up to now is       14.9 secs

     total energy              =     -23.76505030 Ry
     estimated scf accuracy    <       4.71698967 Ry

     iteration #  6     ecut=    50.00 Ry     beta= 0.70
     Davidson diagonalization with overlap
     ethr =  1.00E-02,  avg # of iterations =  4.4

     total cpu time spent up to now is       15.0 secs

     total energy              =     -24.37375336 Ry
     estimated scf accuracy    <       0.95442864 Ry

     iteration #  7     ecut=    50.00 Ry     beta= 0.70
     Davidson diagonalization with overlap
     ethr =  1.00E-02,  avg # of iterations =  1.2

     total cpu time spent up to now is       15.1 secs

     total energy              =     -24.47944400 Ry
     estimated scf accuracy    <       1.05341249 Ry

     iteration #  8     ecut=    50.00 Ry     beta= 0.70
     Davidson diagonalization with overlap
     ethr =  1.00E-02,  avg # of iterations =  1.2

     total cpu time spent up to now is       15.2 secs

     total energy              =     -23.71281425 Ry
     estimated scf accuracy    <       1.07945027 Ry

     iteration #  9     ecut=    50.00 Ry     beta= 0.70
     Davidson diagonalization with overlap
     ethr =  1.00E-02,  avg # of iterations =  1.4

     total cpu time spent up to now is       15.3 secs

     total energy              =     -26.19953599 Ry
     estimated scf accuracy    <       0.62352963 Ry

     iteration # 10     ecut=    50.00 Ry     beta= 0.70
     Davidson diagonalization with overlap
     ethr =  7.79E-03,  avg # of iterations =  1.2

     negative rho (up, down):  1.713E-04 0.000E+00

     total cpu time spent up to now is       15.4 secs

     total energy              =     -22.57744335 Ry
     estimated scf accuracy    <       1.96953278 Ry

     iteration # 11     ecut=    50.00 Ry     beta= 0.70
     Davidson diagonalization with overlap
     ethr =  7.79E-03,  avg # of iterations =  6.3

     negative rho (up, down):  1.036E-04 0.000E+00

     total cpu time spent up to now is       15.6 secs

     total energy              =     -22.74110120 Ry
     estimated scf accuracy    <       0.01547839 Ry

     iteration # 12     ecut=    50.00 Ry     beta= 0.70
     Davidson diagonalization with overlap
     ethr =  1.93E-04,  avg # of iterations =  9.7

     negative rho (up, down):  1.075E-03 0.000E+00

     total cpu time spent up to now is       15.9 secs

     total energy              =     -22.75218326 Ry
     estimated scf accuracy    <       0.01770449 Ry

     iteration # 13     ecut=    50.00 Ry     beta= 0.70
     Davidson diagonalization with overlap
     ethr =  1.93E-04,  avg # of iterations =  2.1

     negative rho (up, down):  2.971E-03 0.000E+00

     total cpu time spent up to now is       16.0 secs

     total energy              =     -22.75546166 Ry
     estimated scf accuracy    <       0.01015511 Ry

     iteration # 14     ecut=    50.00 Ry     beta= 0.70
     Davidson diagonalization with overlap
     ethr =  1.27E-04,  avg # of iterations =  2.1

     negative rho (up, down):  8.043E-03 0.000E+00

     total cpu time spent up to now is       16.1 secs

     total energy              =     -22.76943755 Ry
     estimated scf accuracy    <       0.01519481 Ry

     iteration # 15     ecut=    50.00 Ry     beta= 0.70
     Davidson diagonalization with overlap
     ethr =  1.27E-04,  avg # of iterations =  2.9

     negative rho (up, down):  1.083E-02 0.000E+00

     total cpu time spent up to now is       16.3 secs

     total energy              =     -22.77121741 Ry
     estimated scf accuracy    <       0.04574041 Ry

     iteration # 16     ecut=    50.00 Ry     beta= 0.70
     Davidson diagonalization with overlap
     ethr =  1.27E-04,  avg # of iterations =  1.0

     negative rho (up, down):  2.185E-03 0.000E+00

     total cpu time spent up to now is       16.4 secs

     total energy              =     -22.75933218 Ry
     estimated scf accuracy    <       0.04623469 Ry

     iteration # 17     ecut=    50.00 Ry     beta= 0.70
     Davidson diagonalization with overlap
     ethr =  1.27E-04,  avg # of iterations =  2.1

     negative rho (up, down):  5.171E-05 0.000E+00

     total cpu time spent up to now is       16.5 secs

     total energy              =     -22.75479027 Ry
     estimated scf accuracy    <       0.02064808 Ry

     iteration # 18     ecut=    50.00 Ry     beta= 0.70
     Davidson diagonalization with overlap
     ethr =  1.27E-04,  avg # of iterations =  2.8

     negative rho (up, down):  2.979E-04 0.000E+00

     total cpu time spent up to now is       16.6 secs

     total energy              =     -22.75254580 Ry
     estimated scf accuracy    <       0.00900776 Ry

     iteration # 19     ecut=    50.00 Ry     beta= 0.70
     Davidson diagonalization with overlap
     ethr =  1.13E-04,  avg # of iterations =  2.4

     negative rho (up, down):  2.137E-04 0.000E+00

     total cpu time spent up to now is       16.7 secs

     total energy              =     -22.75260008 Ry
     estimated scf accuracy    <       0.00155425 Ry

     iteration # 20     ecut=    50.00 Ry     beta= 0.70
     Davidson diagonalization with overlap
     ethr =  1.94E-05,  avg # of iterations =  6.0

     negative rho (up, down):  2.436E-04 0.000E+00

     total cpu time spent up to now is       16.9 secs

     total energy              =     -22.75268046 Ry
     estimated scf accuracy    <       0.00087496 Ry

     iteration # 21     ecut=    50.00 Ry     beta= 0.70
     Davidson diagonalization with overlap
     ethr =  1.09E-05,  avg # of iterations =  1.1

     negative rho (up, down):  1.121E-04 0.000E+00

     total cpu time spent up to now is       17.0 secs

     total energy              =     -22.75252043 Ry
     estimated scf accuracy    <       0.00095341 Ry

     iteration # 22     ecut=    50.00 Ry     beta= 0.70
     Davidson diagonalization with overlap
     c_bands:  1 eigenvalues not converged
     ethr =  1.09E-05,  avg # of iterations =  2.8

     negative rho (up, down):  2.659E-05 0.000E+00

     total cpu time spent up to now is       17.1 secs

     total energy              =     -22.75221350 Ry
     estimated scf accuracy    <       0.00056930 Ry

     iteration # 23     ecut=    50.00 Ry     beta= 0.70
     Davidson diagonalization with overlap
     ethr =  7.12E-06,  avg # of iterations =  6.9

     negative rho (up, down):  1.173E-06 0.000E+00

     total cpu time spent up to now is       17.3 secs

     total energy              =     -22.75228521 Ry
     estimated scf accuracy    <       0.00000830 Ry

     iteration # 24     ecut=    50.00 Ry     beta= 0.70
     Davidson diagonalization with overlap
     ethr =  1.04E-07,  avg # of iterations =  4.8

     total cpu time spent up to now is       17.5 secs

     total energy              =     -22.75228868 Ry
     estimated scf accuracy    <       0.00000010 Ry

     iteration # 25     ecut=    50.00 Ry     beta= 0.70
     Davidson diagonalization with overlap
     ethr =  1.29E-09,  avg # of iterations =  3.6

     total cpu time spent up to now is       17.7 secs

     total energy              =     -22.75228877 Ry
     estimated scf accuracy    <       0.00000001 Ry

     iteration # 26     ecut=    50.00 Ry     beta= 0.70
     Davidson diagonalization with overlap
     ethr =  1.75E-10,  avg # of iterations =  2.0

     total cpu time spent up to now is       17.8 secs

     total energy              =     -22.75228877 Ry
     estimated scf accuracy    <          1.0E-10 Ry

     iteration # 27     ecut=    50.00 Ry     beta= 0.70
     Davidson diagonalization with overlap
     ethr =  1.29E-12,  avg # of iterations =  3.6

     total cpu time spent up to now is       17.9 secs

     total energy              =     -22.75228877 Ry
     estimated scf accuracy    <          1.4E-10 Ry

     iteration # 28     ecut=    50.00 Ry     beta= 0.70
     Davidson diagonalization with overlap
     ethr =  1.29E-12,  avg # of iterations =  2.0

     total cpu time spent up to now is       18.1 secs

     End of self-consistent calculation

          k = 0.0000 0.0000 0.0000 (  3529 PWs)   bands (ev):

   -24.1517 -12.1314  -7.0091  -7.0091  -0.9985  -0.2171   0.5546   0.9146

          k =-0.0000 0.0691 0.0000 (  3556 PWs)   bands (ev):

   -24.0432 -11.9975  -7.4760  -7.2701  -0.8501  -0.0661   0.7063   1.0658

          k =-0.0000 0.1383 0.0000 (  3554 PWs)   bands (ev):

   -23.7172 -11.6031  -8.6544  -7.8793  -0.4044   0.3860   1.1613   1.5189

          k =-0.0000 0.2074 0.0000 (  3556 PWs)   bands (ev):

   -23.1761 -10.9537 -10.2660  -8.6366   0.3379   1.1373   1.9197   2.2720

          k =-0.0000 0.2766 0.0000 (  3556 PWs)   bands (ev):

   -22.4235 -12.0654 -10.0645  -9.3697   1.3752   2.1656   2.9802   3.0928

          k =-0.0000 0.3457 0.0000 (  3536 PWs)   bands (ev):

   -21.4655 -13.9001  -9.9710  -8.9686   1.1100   2.7012   3.5653   4.1947

          k =-0.0000 0.4149 0.0000 (  3498 PWs)   bands (ev):

   -20.3160 -15.6584 -10.3956  -7.7562  -0.7588   3.9818   4.3843   5.1999

          k =-0.0000 0.4840 0.0000 (  3506 PWs)   bands (ev):

   -19.0370 -17.2689 -10.6117  -6.7347  -2.1286   3.9219   6.2358   7.1155

          k = 0.0599 0.1037 0.0000 (  3541 PWs)   bands (ev):

   -23.8257 -11.7340  -8.2299  -7.7389  -0.5529   0.2354   1.0097   1.3680

          k = 0.0599 0.1729 0.0000 (  3550 PWs)   bands (ev):

   -23.3922 -11.2117  -9.5287  -8.5273   0.0415   0.8375   1.6166   1.9715

          k = 0.0599 0.2420 0.0000 (  3552 PWs)   bands (ev):

   -22.7453 -11.1744 -10.4412  -9.3343   0.9320   1.7354   2.5266   2.8701

          k = 0.0599 0.3112 0.0000 (  3538 PWs)   bands (ev):

   -21.8901 -12.9602 -10.0303  -9.4448   2.0108   2.1157   2.9726   3.7378

          k = 0.0599 0.3803 0.0000 (  3514 PWs)   bands (ev):

   -20.8355 -14.7437 -10.5580  -8.2738   0.1049   3.5822   4.4471   4.6125

          k = 0.0599 0.4495 0.0000 (  3511 PWs)   bands (ev):

   -19.6077 -16.4354 -10.8875  -7.0866  -1.5731   4.4383   5.3722   6.2176

          k = 0.0599 0.5186 0.0000 (  3512 PWs)   bands (ev):

   -18.5472 -17.6590 -10.9947  -6.4565  -2.3732   4.3961   7.3034   7.4581

          k = 0.1198 0.2074 0.0000 (  3547 PWs)   bands (ev):

   -22.8529 -10.6621 -10.5681  -9.5446   0.7845   1.5881   2.3755   2.7244

          k = 0.1198 0.2766 0.0000 (  3540 PWs)   bands (ev):

   -22.1035 -12.1069 -10.5066  -9.6857   1.8224   2.5648   2.6990   3.4374

          k = 0.1198 0.3457 0.0000 (  3518 PWs)   bands (ev):

   -21.1511 -13.7628 -11.2083  -8.5972   0.8324   3.1510   3.9779   4.8004

          k = 0.1198 0.4149 0.0000 (  3519 PWs)   bands (ev):

   -20.0126 -15.4445 -11.6721  -7.3854  -0.9116   4.7583   5.5860   5.8313

          k = 0.1198 0.4840 0.0000 (  3510 PWs)   bands (ev):

   -18.7502 -16.9983 -11.9005  -6.3420  -2.2406   5.7133   6.6574   7.3674

          k = 0.1797 0.3112 0.0000 (  3513 PWs)   bands (ev):

   -21.2568 -13.1347 -11.7437  -8.7064   1.1318   3.0050   3.8138   4.6507

          k = 0.1797 0.3803 0.0000 (  3495 PWs)   bands (ev):

   -20.2187 -14.4694 -12.5983  -7.5499  -0.4369   4.4718   5.2476   6.1642

          k = 0.1797 0.4495 0.0000 (  3500 PWs)   bands (ev):

   -19.0165 -15.9733 -13.0346  -6.3454  -1.9219   6.2036   6.7586   7.5589

          k = 0.1797 0.5186 0.0000 (  3490 PWs)   bands (ev):

   -17.9942 -17.1140 -13.1678  -5.6504  -2.7141   7.4437   7.4919   8.0595

          k = 0.2395 0.4149 0.0000 (  3481 PWs)   bands (ev):

   -19.1119 -15.2529 -13.7982  -6.3596  -1.7560   6.0603   6.5115   7.8230

          k = 0.2395 0.4840 0.0000 (  3474 PWs)   bands (ev):

   -17.9033 -16.3639 -14.3575  -5.2135  -2.9627   6.8693   7.8539   9.2925

          k = 0.2994 0.5186 0.0000 (  3462 PWs)   bands (ev):

   -16.8892 -16.8892 -15.0566  -4.0653  -4.0653   6.6493   9.2696   9.2696

     the Fermi energy is    -4.0653 ev

!    total energy              =     -22.75228877 Ry
     estimated scf accuracy    <          4.3E-12 Ry
     smearing contrib. (-TS)   =      -0.00005015 Ry
     internal energy E=F+TS    =     -22.75223862 Ry

     The total energy is F=E-TS. E is the sum of the following terms:
     one-electron contribution =    -403.25195324 Ry
     hartree contribution      =     202.28852147 Ry
     xc contribution           =      -7.09800146 Ry
     ewald contribution        =     185.30919461 Ry

     convergence has been achieved in  28 iterations

     Forces acting on atoms (cartesian axes, Ry/au):

     atom    1 type  1   force =     0.00000000    0.00000000    0.00000000
     atom    2 type  1   force =    -0.00000000   -0.00000000    0.00000000

     Total force =     0.000000     Total SCF correction =     0.000000


     Computing stress (Cartesian axis) and pressure

          total   stress  (Ry/bohr**3)                   (kbar)     P=       -4.64
   0.00002912  -0.00000000  -0.00000000            4.28       -0.00       -0.00
  -0.00000000   0.00002912   0.00000000           -0.00        4.28        0.00
   0.00000000  -0.00000000  -0.00015287            0.00       -0.00      -22.49

     Energy error            =      2.0E-03
     Gradient error          =      1.5E-26
     Cell gradient error     =      2.9E-05


     number of scf cycles    =   4
     number of bfgs steps    =   3

     enthalpy old            =     -22.7503306206 Ry
     enthalpy new            =     -22.7522887690 Ry

     CASE: enthalpy_new < enthalpy_old

     new trust radius        =       0.0093986541 bohr
     new conv_thr            =            1.0E-10 Ry

     new unit-cell volume =    733.26788 a.u.^3 (   108.65909 Ang^3 )
     density =      0.36710 g/cm^3

CELL_PARAMETERS (alat=  4.10000000)
   1.115204845   0.000000000   0.000000000
  -0.557602422   0.965795726   0.000000000
   0.000000000   0.000000000   9.878048780

ATOMIC_POSITIONS (crystal)
C             0.3333333333        0.6666666667        0.5000000000
C             0.6666666667        0.3333333333        0.5000000000



     Writing output data file ./work/LiC410.save/
     NEW-OLD atomic charge density approx. for the potential

     negative rho (up, down):  2.108E-06 0.000E+00
     extrapolated charge    8.02769, renormalised to    8.00000

     total cpu time spent up to now is       18.1 secs

     Self-consistent Calculation

     iteration #  1     ecut=    50.00 Ry     beta= 0.70
     Davidson diagonalization with overlap
     c_bands:  1 eigenvalues not converged
     c_bands:  1 eigenvalues not converged
     c_bands:  1 eigenvalues not converged
     c_bands:  2 eigenvalues not converged
     c_bands:  3 eigenvalues not converged
     c_bands:  2 eigenvalues not converged
     ethr =  1.00E-06,  avg # of iterations = 13.2

     total cpu time spent up to now is       18.4 secs

     total energy              =     -22.75183130 Ry
     estimated scf accuracy    <       0.00025525 Ry

     iteration #  2     ecut=    50.00 Ry     beta= 0.70
     Davidson diagonalization with overlap
     c_bands:  1 eigenvalues not converged
     c_bands:  1 eigenvalues not converged
     c_bands:  1 eigenvalues not converged
     c_bands:  1 eigenvalues not converged
     c_bands:  1 eigenvalues not converged
     c_bands:  1 eigenvalues not converged
     ethr =  3.19E-06,  avg # of iterations = 13.2

     total cpu time spent up to now is       18.8 secs

     total energy              =     -22.75234198 Ry
     estimated scf accuracy    <       0.00024050 Ry

     iteration #  3     ecut=    50.00 Ry     beta= 0.70
     Davidson diagonalization with overlap
     c_bands:  1 eigenvalues not converged
     ethr =  3.01E-06,  avg # of iterations =  2.4

     total cpu time spent up to now is       18.9 secs

     total energy              =     -22.75233022 Ry
     estimated scf accuracy    <       0.00005463 Ry

     iteration #  4     ecut=    50.00 Ry     beta= 0.70
     Davidson diagonalization with overlap
     ethr =  6.83E-07,  avg # of iterations =  1.8

     total cpu time spent up to now is       19.0 secs

     total energy              =     -22.75233281 Ry
     estimated scf accuracy    <       0.00001242 Ry

     iteration #  5     ecut=    50.00 Ry     beta= 0.70
     Davidson diagonalization with overlap
     ethr =  1.55E-07,  avg # of iterations =  1.0

     total cpu time spent up to now is       19.1 secs

     total energy              =     -22.75232887 Ry
     estimated scf accuracy    <       0.00001205 Ry

     iteration #  6     ecut=    50.00 Ry     beta= 0.70
     Davidson diagonalization with overlap
     ethr =  1.51E-07,  avg # of iterations =  1.0

     total cpu time spent up to now is       19.2 secs

     total energy              =     -22.75232651 Ry
     estimated scf accuracy    <       0.00000418 Ry

     iteration #  7     ecut=    50.00 Ry     beta= 0.70
     Davidson diagonalization with overlap
     ethr =  5.23E-08,  avg # of iterations =  2.0

     total cpu time spent up to now is       19.3 secs

     total energy              =     -22.75232729 Ry
     estimated scf accuracy    <       0.00000011 Ry

     iteration #  8     ecut=    50.00 Ry     beta= 0.70
     Davidson diagonalization with overlap
     ethr =  1.37E-09,  avg # of iterations =  2.0

     total cpu time spent up to now is       19.5 secs

     total energy              =     -22.75232731 Ry
     estimated scf accuracy    <          5.9E-09 Ry

     iteration #  9     ecut=    50.00 Ry     beta= 0.70
     Davidson diagonalization with overlap
     ethr =  7.37E-11,  avg # of iterations =  2.8

     total cpu time spent up to now is       19.6 secs

     total energy              =     -22.75232731 Ry
     estimated scf accuracy    <          7.1E-10 Ry

     iteration # 10     ecut=    50.00 Ry     beta= 0.70
     Davidson diagonalization with overlap
     ethr =  8.88E-12,  avg # of iterations =  2.1

     total cpu time spent up to now is       19.7 secs

     total energy              =     -22.75232731 Ry
     estimated scf accuracy    <          1.7E-09 Ry

     iteration # 11     ecut=    50.00 Ry     beta= 0.70
     Davidson diagonalization with overlap
     ethr =  8.88E-12,  avg # of iterations =  1.0

     total cpu time spent up to now is       19.8 secs

     total energy              =     -22.75232731 Ry
     estimated scf accuracy    <          9.7E-10 Ry

     iteration # 12     ecut=    50.00 Ry     beta= 0.70
     Davidson diagonalization with overlap
     ethr =  8.88E-12,  avg # of iterations =  1.0

     total cpu time spent up to now is       19.9 secs

     total energy              =     -22.75232731 Ry
     estimated scf accuracy    <          3.1E-10 Ry

     iteration # 13     ecut=    50.00 Ry     beta= 0.70
     Davidson diagonalization with overlap
     ethr =  3.88E-12,  avg # of iterations =  1.0

     total cpu time spent up to now is       20.0 secs

     End of self-consistent calculation

          k = 0.0000 0.0000 0.0000 (  3529 PWs)   bands (ev):

   -24.1258 -12.1110  -7.0257  -7.0257  -0.9976  -0.2172   0.5547   0.9147

          k =-0.0000 0.0690 0.0000 (  3556 PWs)   bands (ev):

   -24.0176 -11.9776  -7.4921  -7.2857  -0.8497  -0.0667   0.7058   1.0654

          k =-0.0000 0.1381 0.0000 (  3554 PWs)   bands (ev):

   -23.6926 -11.5848  -8.6682  -7.8918  -0.4056   0.3838   1.1593   1.5169

          k =-0.0000 0.2071 0.0000 (  3556 PWs)   bands (ev):

   -23.1530 -10.9382 -10.2761  -8.6456   0.3342   1.1324   1.9150   2.2672

          k =-0.0000 0.2761 0.0000 (  3556 PWs)   bands (ev):

   -22.4026 -12.0708 -10.0528  -9.3753   1.3679   2.1561   2.9718   3.0547

          k =-0.0000 0.3451 0.0000 (  3536 PWs)   bands (ev):

   -21.4476 -13.9004  -9.9739  -8.9618   1.0732   2.6892   3.5513   4.1388

          k =-0.0000 0.4142 0.0000 (  3498 PWs)   bands (ev):

   -20.3020 -15.6530 -10.3966  -7.7551  -0.7858   3.9202   4.3598   5.1802

          k =-0.0000 0.4832 0.0000 (  3506 PWs)   bands (ev):

   -19.0296 -17.2562 -10.6117  -6.7390  -2.1478   3.8527   6.2112   7.0884

          k = 0.0598 0.1035 0.0000 (  3541 PWs)   bands (ev):

   -23.8008 -11.7152  -8.2447  -7.7518  -0.5535   0.2337   1.0081   1.3665

          k = 0.0598 0.1726 0.0000 (  3550 PWs)   bands (ev):

   -23.3685 -11.1951  -9.5410  -8.5368   0.0388   0.8337   1.6129   1.9678

          k = 0.0598 0.2416 0.0000 (  3552 PWs)   bands (ev):

   -22.7236 -11.1826 -10.4279  -9.3403   0.9262   1.7283   2.5198   2.8629

          k = 0.0598 0.3106 0.0000 (  3538 PWs)   bands (ev):

   -21.8709 -12.9634 -10.0335  -9.4358   1.9695   2.1058   2.9599   3.7266

          k = 0.0598 0.3797 0.0000 (  3514 PWs)   bands (ev):

   -20.8196 -14.7415 -10.5590  -8.2702   0.0729   3.5668   4.4300   4.5452

          k = 0.0598 0.4487 0.0000 (  3511 PWs)   bands (ev):

   -19.5965 -16.4272 -10.8872  -7.0888  -1.5960   4.3695   5.3498   6.1940

          k = 0.0598 0.5177 0.0000 (  3512 PWs)   bands (ev):

   -18.5459 -17.6406 -10.9940  -6.4623  -2.3915   4.3258   7.2746   7.4297

          k = 0.1196 0.2071 0.0000 (  3547 PWs)   bands (ev):

   -22.8308 -10.6728 -10.5542  -9.5490   0.7793   1.5816   2.3692   2.7180

          k = 0.1196 0.2761 0.0000 (  3540 PWs)   bands (ev):

   -22.0837 -12.1140 -10.5075  -9.6756   1.8136   2.5333   2.6731   3.4274

          k = 0.1196 0.3451 0.0000 (  3518 PWs)   bands (ev):

   -21.1342 -13.7646 -11.2073  -8.5920   0.7951   3.1375   3.9626   4.7856

          k = 0.1196 0.4142 0.0000 (  3519 PWs)   bands (ev):

   -19.9995 -15.4406 -11.6698  -7.3858  -0.9395   4.7389   5.5646   5.7605

          k = 0.1196 0.4832 0.0000 (  3510 PWs)   bands (ev):

   -18.7435 -16.9870 -11.8975  -6.3479  -2.2611   5.6411   6.6309   7.3381

          k = 0.1793 0.3106 0.0000 (  3513 PWs)   bands (ev):

   -21.2395 -13.1413 -11.7385  -8.7007   1.0920   2.9920   3.7992   4.6365

          k = 0.1793 0.3797 0.0000 (  3495 PWs)   bands (ev):

   -20.2048 -14.4715 -12.5910  -7.5495  -0.4688   4.4537   5.2274   6.1447

          k = 0.1793 0.4487 0.0000 (  3500 PWs)   bands (ev):

   -19.0072 -15.9688 -13.0272  -6.3508  -1.9461   6.1791   6.7315   7.4846

          k = 0.1793 0.5177 0.0000 (  3490 PWs)   bands (ev):

   -17.9936 -17.1001 -13.1603  -5.6595  -2.7339   7.4130   7.4168   8.0269

          k = 0.2391 0.4142 0.0000 (  3481 PWs)   bands (ev):

   -19.1019 -15.2560 -13.7837  -6.3647  -1.7821   6.0364   6.4858   7.7982

          k = 0.2391 0.4832 0.0000 (  3474 PWs)   bands (ev):

   -17.8991 -16.3612 -14.3416  -5.2242  -2.9831   6.8431   7.8223   9.1785

          k = 0.2989 0.5177 0.0000 (  3462 PWs)   bands (ev):

   -16.8900 -16.8900 -15.0317  -4.0812  -4.0812   6.6252   9.2228   9.2228

     the Fermi energy is    -4.0812 ev

!    total energy              =     -22.75232731 Ry
     estimated scf accuracy    <          9.5E-11 Ry
     smearing contrib. (-TS)   =      -0.00005015 Ry
     internal energy E=F+TS    =     -22.75227716 Ry

     The total energy is F=E-TS. E is the sum of the following terms:
     one-electron contribution =    -401.83495702 Ry
     hartree contribution      =     201.57628379 Ry
     xc contribution           =      -7.09027318 Ry
     ewald contribution        =     184.59666925 Ry

     convergence has been achieved in  13 iterations

     Forces acting on atoms (cartesian axes, Ry/au):

     atom    1 type  1   force =     0.00000000    0.00000000    0.00000000
     atom    2 type  1   force =    -0.00000000   -0.00000000    0.00000000

     Total force =     0.000000     Total SCF correction =     0.000000


     Computing stress (Cartesian axis) and pressure

          total   stress  (Ry/bohr**3)                   (kbar)     P=       -7.37
   0.00000127   0.00000000  -0.00000000            0.19        0.00       -0.00
   0.00000000   0.00000127   0.00000000            0.00        0.19        0.00
  -0.00000000   0.00000000  -0.00015285           -0.00        0.00      -22.49

     Energy error            =      3.9E-05
     Gradient error          =      1.5E-26
     Cell gradient error     =      1.3E-06


     number of scf cycles    =   5
     number of bfgs steps    =   4

     enthalpy old            =     -22.7522887690 Ry
     enthalpy new            =     -22.7523273068 Ry

     CASE: enthalpy_new < enthalpy_old

     new trust radius        =       0.0004301105 bohr
     new conv_thr            =            1.0E-10 Ry

     new unit-cell volume =    733.38436 a.u.^3 (   108.67635 Ang^3 )
     density =      0.36704 g/cm^3

CELL_PARAMETERS (alat=  4.10000000)
   1.115293412   0.000000000   0.000000000
  -0.557646706   0.965872428   0.000000000
   0.000000000   0.000000000   9.878048780

ATOMIC_POSITIONS (crystal)
C             0.3333333333        0.6666666667        0.5000000000
C             0.6666666667        0.3333333333        0.5000000000



     Writing output data file ./work/LiC410.save/
     NEW-OLD atomic charge density approx. for the potential
     extrapolated charge    8.00127, renormalised to    8.00000

     total cpu time spent up to now is       20.1 secs

     Self-consistent Calculation

     iteration #  1     ecut=    50.00 Ry     beta= 0.70
     Davidson diagonalization with overlap
     ethr =  1.00E-06,  avg # of iterations =  3.4

     Threshold (ethr) on eigenvalues was too large:
     Diagonalizing with lowered threshold

     Davidson diagonalization with overlap
     ethr =  5.90E-09,  avg # of iterations =  1.0

     total cpu time spent up to now is       20.3 secs

     total energy              =     -22.75232641 Ry
     estimated scf accuracy    <       0.00000051 Ry

     iteration #  2     ecut=    50.00 Ry     beta= 0.70
     Davidson diagonalization with overlap
     ethr =  6.33E-09,  avg # of iterations =  3.7

     total cpu time spent up to now is       20.5 secs

     total energy              =     -22.75232741 Ry
     estimated scf accuracy    <       0.00000046 Ry

     iteration #  3     ecut=    50.00 Ry     beta= 0.70
     Davidson diagonalization with overlap
     ethr =  5.80E-09,  avg # of iterations =  1.0

     total cpu time spent up to now is       20.6 secs

     total energy              =     -22.75232738 Ry
     estimated scf accuracy    <       0.00000011 Ry

     iteration #  4     ecut=    50.00 Ry     beta= 0.70
     Davidson diagonalization with overlap
     ethr =  1.33E-09,  avg # of iterations =  1.9

     total cpu time spent up to now is       20.7 secs

     total energy              =     -22.75232739 Ry
     estimated scf accuracy    <       0.00000002 Ry

     iteration #  5     ecut=    50.00 Ry     beta= 0.70
     Davidson diagonalization with overlap
     ethr =  2.01E-10,  avg # of iterations =  1.0

     total cpu time spent up to now is       20.8 secs

     total energy              =     -22.75232739 Ry
     estimated scf accuracy    <       0.00000002 Ry

     iteration #  6     ecut=    50.00 Ry     beta= 0.70
     Davidson diagonalization with overlap
     ethr =  2.01E-10,  avg # of iterations =  1.0

     total cpu time spent up to now is       20.9 secs

     total energy              =     -22.75232738 Ry
     estimated scf accuracy    <       0.00000002 Ry

     iteration #  7     ecut=    50.00 Ry     beta= 0.70
     Davidson diagonalization with overlap
     ethr =  1.94E-10,  avg # of iterations =  1.1

     total cpu time spent up to now is       21.0 secs

     total energy              =     -22.75232738 Ry
     estimated scf accuracy    <          2.6E-09 Ry

     iteration #  8     ecut=    50.00 Ry     beta= 0.70
     Davidson diagonalization with overlap
     ethr =  3.23E-11,  avg # of iterations =  2.0

     total cpu time spent up to now is       21.1 secs

     total energy              =     -22.75232738 Ry
     estimated scf accuracy    <          1.3E-09 Ry

     iteration #  9     ecut=    50.00 Ry     beta= 0.70
     Davidson diagonalization with overlap
     ethr =  1.66E-11,  avg # of iterations =  1.0

     total cpu time spent up to now is       21.3 secs

     total energy              =     -22.75232738 Ry
     estimated scf accuracy    <          2.4E-09 Ry

     iteration # 10     ecut=    50.00 Ry     beta= 0.70
     Davidson diagonalization with overlap
     ethr =  1.66E-11,  avg # of iterations =  1.0

     total cpu time spent up to now is       21.4 secs

     total energy              =     -22.75232738 Ry
     estimated scf accuracy    <          2.4E-09 Ry

     iteration # 11     ecut=    50.00 Ry     beta= 0.70
     Davidson diagonalization with overlap
[...]

   -19.9987 -15.4402 -11.6694  -7.3856  -0.9405   4.7381   5.5637   5.7575

          k = 0.1195 0.4832 0.0000 (  3510 PWs)   bands (ev):

   -18.7430 -16.9862 -11.8971  -6.3479  -2.2618   5.6380   6.6298   7.3368

          k = 0.1793 0.3106 0.0000 (  3513 PWs)   bands (ev):

   -21.2385 -13.1413 -11.7380  -8.7002   1.0904   2.9916   3.7986   4.6358

          k = 0.1793 0.3796 0.0000 (  3495 PWs)   bands (ev):

   -20.2039 -14.4713 -12.5904  -7.5492  -0.4700   4.4530   5.2266   6.1437

          k = 0.1793 0.4486 0.0000 (  3500 PWs)   bands (ev):

   -19.0065 -15.9683 -13.0266  -6.3508  -1.9470   6.1781   6.7304   7.4815

          k = 0.1793 0.5177 0.0000 (  3490 PWs)   bands (ev):

   -17.9934 -17.0992 -13.1597  -5.6597  -2.7345   7.4118   7.4136   8.0255

          k = 0.2391 0.4141 0.0000 (  3481 PWs)   bands (ev):

   -19.1012 -15.2559 -13.7827  -6.3647  -1.7831   6.0354   6.4847   7.7970

          k = 0.2391 0.4832 0.0000 (  3474 PWs)   bands (ev):

   -17.8987 -16.3608 -14.3406  -5.2245  -2.9838   6.8421   7.8210   9.1753

          k = 0.2989 0.5177 0.0000 (  3462 PWs)   bands (ev):

   -16.8897 -16.8897 -15.0303  -4.0817  -4.0817   6.6243   9.2208   9.2208

     the Fermi energy is    -4.0817 ev

!    total energy              =     -22.75232738 Ry
     estimated scf accuracy    <          1.3E-12 Ry
     smearing contrib. (-TS)   =      -0.00005015 Ry
     internal energy E=F+TS    =     -22.75227723 Ry

     The total energy is F=E-TS. E is the sum of the following terms:
     one-electron contribution =    -401.77011625 Ry
     hartree contribution      =     201.54367035 Ry
     xc contribution           =      -7.08991520 Ry
     ewald contribution        =     184.56408387 Ry

     convergence has been achieved in   1 iterations

     Forces acting on atoms (cartesian axes, Ry/au):

     atom    1 type  1   force =     0.00000000    0.00000000    0.00000000
     atom    2 type  1   force =    -0.00000000   -0.00000000    0.00000000

     Total force =     0.000000     Total SCF correction =     0.000000


     Computing stress (Cartesian axis) and pressure

          total   stress  (Ry/bohr**3)                   (kbar)     P=       -7.50
   0.00000001  -0.00000000   0.00000000            0.00       -0.00        0.00
  -0.00000000   0.00000001  -0.00000000           -0.00        0.00       -0.00
  -0.00000000   0.00000000  -0.00015289           -0.00        0.00      -22.49

     Energy error            =      2.7E-11
     Gradient error          =      1.5E-26
     Cell gradient error     =      6.3E-09


     bfgs converged in   7 scf cycles and   6 bfgs steps
     (criteria: energy <  1.0E-04 Ry, force <  1.0E-08Ry/Bohr, cell <  1.0E-03kbar)

     End of BFGS Geometry Optimization

     Final enthalpy =     -22.7523273813 Ry

     File ./work/LiC410.bfgs deleted, as requested
Begin final coordinates
     new unit-cell volume =    733.38461 a.u.^3 (   108.67639 Ang^3 )
     density =      0.36704 g/cm^3

CELL_PARAMETERS (alat=  4.10000000)
   1.115293602   0.000000000   0.000000000
  -0.557646801   0.965872592   0.000000000
   0.000000000   0.000000000   9.878048780

ATOMIC_POSITIONS (crystal)
C             0.3333333333        0.6666666667        0.5000000000
C             0.6666666667        0.3333333333        0.5000000000
End final coordinates



     Writing output data file ./work/LiC410.save/

     Final scf calculation at the relaxed structure.
     The G-vectors are recalculated for the final unit cell
     Results may differ from those at the preceding step.
 
     Parallelization info
     --------------------
     sticks:   dense  smooth     PW     G-vecs:    dense   smooth      PW
     Min           9       9      2                 1088     1088     168
     Max          11      11      3                 1103     1103     213
     Sum         295     295     91                35085    35085    6277
 


     bravais-lattice index     =            4
     lattice parameter (alat)  =       4.1000  a.u.
     unit-cell volume          =     733.3846 (a.u.)^3
     number of atoms/cell      =            2
     number of atomic types    =            1
     number of electrons       =         8.00
     number of Kohn-Sham states=            8
     kinetic-energy cutoff     =      50.0000  Ry
     charge density cutoff     =     200.0000  Ry
     scf convergence threshold =      1.0E-10
     mixing beta               =       0.7000
     number of iterations used =            8  plain     mixing
     press convergence thresh. =      1.0E-03
     Exchange-correlation= PBE
                           (   1   4   3   4   0   0   0)

     celldm(1)=   4.100000  celldm(2)=   0.000000  celldm(3)=   9.878049
     celldm(4)=   0.000000  celldm(5)=   0.000000  celldm(6)=   0.000000

     crystal axes: (cart. coord. in units of alat)
               a(1) = (   1.115294   0.000000   0.000000 )  
               a(2) = (  -0.557647   0.965873   0.000000 )  
               a(3) = (   0.000000   0.000000   9.878049 )  

     reciprocal axes: (cart. coord. in units 2 pi/alat)
               b(1) = (  0.896625  0.517667  0.000000 )  
               b(2) = ( -0.000000  1.035333  0.000000 )  
               b(3) = (  0.000000  0.000000  0.101235 )  


     PseudoPot. # 1 for C  read from file:
     /home/yhkim/qe-6.7/pseudo/ONCV1/1.2/C_ONCV_PBE-1.2.upf
     MD5 check sum: 1a5f83a7b1f58d24996abe00ed223ac6
     Pseudo is Norm-conserving, Zval =  4.0
     Generated using ONCVPSP code by D. R. Hamann
     Using radial grid of  602 points,  4 beta functions with: 
                l(1) =   0
                l(2) =   0
                l(3) =   1
                l(4) =   1

     atomic species   valence    mass     pseudopotential
        C              4.00    12.01070     C ( 1.00)

     24 Sym. Ops., with inversion, found



   Cartesian axes

     site n.     atom                  positions (alat units)
         1           C   tau(   1) = (  -0.0000000   0.6439151   4.9390244  )
         2           C   tau(   2) = (   0.5576468   0.3219575   4.9390244  )

     number of k points=    27  Methfessel-Paxton smearing, width (Ry)=  0.0100
                       cart. coord. in units 2pi/alat
        k(    1) = (   0.0000000   0.0000000   0.0000000), wk =   0.0088889
        k(    2) = (  -0.0000000   0.0690222   0.0000000), wk =   0.0533333
        k(    3) = (  -0.0000000   0.1380444   0.0000000), wk =   0.0533333
        k(    4) = (  -0.0000000   0.2070666   0.0000000), wk =   0.0533333
        k(    5) = (  -0.0000000   0.2760889   0.0000000), wk =   0.0533333
        k(    6) = (  -0.0000000   0.3451111   0.0000000), wk =   0.0533333
        k(    7) = (  -0.0000000   0.4141333   0.0000000), wk =   0.0533333
        k(    8) = (  -0.0000000   0.4831555   0.0000000), wk =   0.0533333
        k(    9) = (   0.0597750   0.1035333   0.0000000), wk =   0.0533333
        k(   10) = (   0.0597750   0.1725555   0.0000000), wk =   0.1066667
        k(   11) = (   0.0597750   0.2415778   0.0000000), wk =   0.1066667
        k(   12) = (   0.0597750   0.3106000   0.0000000), wk =   0.1066667
        k(   13) = (   0.0597750   0.3796222   0.0000000), wk =   0.1066667
        k(   14) = (   0.0597750   0.4486444   0.0000000), wk =   0.1066667
        k(   15) = (   0.0597750   0.5176666   0.0000000), wk =   0.0533333
        k(   16) = (   0.1195500   0.2070666   0.0000000), wk =   0.0533333
        k(   17) = (   0.1195500   0.2760889   0.0000000), wk =   0.1066667
        k(   18) = (   0.1195500   0.3451111   0.0000000), wk =   0.1066667
        k(   19) = (   0.1195500   0.4141333   0.0000000), wk =   0.1066667
        k(   20) = (   0.1195500   0.4831555   0.0000000), wk =   0.1066667
        k(   21) = (   0.1793250   0.3106000   0.0000000), wk =   0.0533333
        k(   22) = (   0.1793250   0.3796222   0.0000000), wk =   0.1066667
        k(   23) = (   0.1793250   0.4486444   0.0000000), wk =   0.1066667
        k(   24) = (   0.1793250   0.5176666   0.0000000), wk =   0.0533333
        k(   25) = (   0.2391000   0.4141333   0.0000000), wk =   0.0533333
        k(   26) = (   0.2391000   0.4831555   0.0000000), wk =   0.1066667
        k(   27) = (   0.2988750   0.5176666   0.0000000), wk =   0.0177778

     Dense  grid:    35085 G-vectors     FFT dimensions: (  24,  24, 192)

     Estimated max dynamical RAM per process >       1.93 MB

     Estimated total dynamical RAM >      61.65 MB
 ----2D----2D----2D----2D----2D----2D----2D----2D----2D----2D----2D----2D
  The code is running with the 2D cutoff
  Please refer to:
  Sohier, T., Calandra, M., & Mauri, F. (2017), 
  Density functional perturbation theory for gated two-dimensional heterostructu
 res:
  Theoretical developments and application to flexural phonons in graphene.
  Physical Review B, 96(7), 75448. https://doi.org/10.1103/PhysRevB.96.075448
 ----2D----2D----2D----2D----2D----2D----2D----2D----2D----2D----2D----2D

     Initial potential from superposition of free atoms

     starting charge    7.98607, renormalised to    8.00000

     negative rho (up, down):  1.107E-04 0.000E+00
     Starting wfcs are random

     total cpu time spent up to now is       22.4 secs

     Self-consistent Calculation

     iteration #  1     ecut=    50.00 Ry     beta= 0.70
     Davidson diagonalization with overlap
     c_bands:  5 eigenvalues not converged
     c_bands:  2 eigenvalues not converged
     c_bands:  5 eigenvalues not converged
     c_bands:  5 eigenvalues not converged
     c_bands:  4 eigenvalues not converged
     c_bands:  4 eigenvalues not converged
     c_bands:  3 eigenvalues not converged
     c_bands:  2 eigenvalues not converged
     c_bands:  5 eigenvalues not converged
     c_bands:  5 eigenvalues not converged
     c_bands:  4 eigenvalues not converged
     c_bands:  4 eigenvalues not converged
     c_bands:  4 eigenvalues not converged
     c_bands:  3 eigenvalues not converged
     c_bands:  2 eigenvalues not converged
     c_bands:  4 eigenvalues not converged
     c_bands:  4 eigenvalues not converged
     c_bands:  4 eigenvalues not converged
     c_bands:  3 eigenvalues not converged
     c_bands:  3 eigenvalues not converged
     c_bands:  4 eigenvalues not converged
     c_bands:  3 eigenvalues not converged
     c_bands:  3 eigenvalues not converged
     c_bands:  3 eigenvalues not converged
     c_bands:  4 eigenvalues not converged
     c_bands:  3 eigenvalues not converged
     c_bands:  3 eigenvalues not converged
     ethr =  1.00E-06,  avg # of iterations = 20.7

     negative rho (up, down):  2.197E-05 0.000E+00

     total cpu time spent up to now is       23.1 secs

     total energy              =     -22.75262300 Ry
     estimated scf accuracy    <       0.22255022 Ry

     iteration #  2     ecut=    50.00 Ry     beta= 0.70
     Davidson diagonalization with overlap
     ethr =  2.78E-03,  avg # of iterations =  2.4

     negative rho (up, down):  2.732E-06 0.000E+00

     total cpu time spent up to now is       23.2 secs

     total energy              =     -22.78656819 Ry
     estimated scf accuracy    <       0.00242546 Ry

     iteration #  3     ecut=    50.00 Ry     beta= 0.70
     Davidson diagonalization with overlap
     ethr =  3.03E-05,  avg # of iterations =  9.4

     total cpu time spent up to now is       23.4 secs

     total energy              =     -22.78700808 Ry
     estimated scf accuracy    <       0.00017713 Ry

     iteration #  4     ecut=    50.00 Ry     beta= 0.70
     Davidson diagonalization with overlap
     c_bands:  1 eigenvalues not converged
     ethr =  2.21E-06,  avg # of iterations =  5.7

     total cpu time spent up to now is       23.6 secs

     total energy              =     -22.78702273 Ry
     estimated scf accuracy    <       0.00000125 Ry

     iteration #  5     ecut=    50.00 Ry     beta= 0.70
     Davidson diagonalization with overlap
     ethr =  1.56E-08,  avg # of iterations =  3.9

     total cpu time spent up to now is       23.7 secs

     total energy              =     -22.78702433 Ry
     estimated scf accuracy    <       0.00000004 Ry

     iteration #  6     ecut=    50.00 Ry     beta= 0.70
     Davidson diagonalization with overlap
     ethr =  5.06E-10,  avg # of iterations =  2.4

     total cpu time spent up to now is       23.8 secs

     total energy              =     -22.78702434 Ry
     estimated scf accuracy    <          1.3E-09 Ry

     iteration #  7     ecut=    50.00 Ry     beta= 0.70
     Davidson diagonalization with overlap
     ethr =  1.60E-11,  avg # of iterations =  2.9

     total cpu time spent up to now is       23.9 secs

     End of self-consistent calculation

          k = 0.0000 0.0000 0.0000 (  4339 PWs)   bands (ev):

   -24.0808 -12.0924  -7.1341  -7.1341  -0.9911  -0.2047   0.5802   0.9358

          k =-0.0000 0.0690 0.0000 (  4353 PWs)   bands (ev):

   -23.9723 -11.9625  -7.5665  -7.3698  -0.8432  -0.0546   0.7313   1.0863

          k =-0.0000 0.1380 0.0000 (  4329 PWs)   bands (ev):

   -23.6477 -11.5703  -8.7158  -7.9650  -0.3994   0.3957   1.1847   1.5377

          k =-0.0000 0.2071 0.0000 (  4349 PWs)   bands (ev):

   -23.1095 -10.9237 -10.3088  -8.7081   0.3399   1.1439   1.9402   2.2880

          k =-0.0000 0.2761 0.0000 (  4379 PWs)   bands (ev):

   -22.3619 -12.0943 -10.0387  -9.4311   1.3725   2.1660   2.9965   3.0505

          k =-0.0000 0.3451 0.0000 (  4385 PWs)   bands (ev):

   -21.4113 -13.9146 -10.0315  -8.9499   1.0693   2.6920   3.5614   4.1473

          k =-0.0000 0.4141 0.0000 (  4405 PWs)   bands (ev):

   -20.2718 -15.6724 -10.4543  -7.7455  -0.7879   3.9262   4.3674   5.1890

          k =-0.0000 0.4832 0.0000 (  4398 PWs)   bands (ev):

   -19.0025 -17.2598 -10.6730  -6.7307  -2.1477   3.8678   6.2107   7.0952

          k = 0.0598 0.1035 0.0000 (  4329 PWs)   bands (ev):

   -23.7557 -11.7005  -8.3018  -7.8409  -0.5472   0.2457   1.0335   1.3873

          k = 0.0598 0.1726 0.0000 (  4338 PWs)   bands (ev):

   -23.3244 -11.1810  -9.5813  -8.6039   0.0447   0.8453   1.6382   1.9886

          k = 0.0598 0.2416 0.0000 (  4359 PWs)   bands (ev):

   -22.6816 -11.2107 -10.4143  -9.3975   0.9314   1.7394   2.5448   2.8836

          k = 0.0598 0.3106 0.0000 (  4385 PWs)   bands (ev):

   -21.8325 -12.9825 -10.0891  -9.4232   1.9595   2.1097   2.9700   3.7508

          k = 0.0598 0.3796 0.0000 (  4401 PWs)   bands (ev):

   -20.7869 -14.7576 -10.6146  -8.2593   0.0685   3.5678   4.4394   4.5499

          k = 0.0598 0.4486 0.0000 (  4401 PWs)   bands (ev):

   -19.5688 -16.4370 -10.9401  -7.0800  -1.5954   4.3757   5.3521   6.2016

          k = 0.0598 0.5177 0.0000 (  4388 PWs)   bands (ev):

   -18.5140 -17.6487 -11.0510  -6.4533  -2.3887   4.3350   7.2719   7.4246

          k = 0.1195 0.2071 0.0000 (  4351 PWs)   bands (ev):

   -22.7887 -10.7010 -10.5402  -9.6146   0.7845   1.5928   2.3942   2.7388

          k = 0.1195 0.2761 0.0000 (  4382 PWs)   bands (ev):

   -22.0445 -12.1354 -10.5623  -9.6630   1.8179   2.5289   2.6774   3.4521

          k = 0.1195 0.3451 0.0000 (  4380 PWs)   bands (ev):

   -21.0997 -13.7806 -11.2576  -8.5807   0.7884   3.1402   3.9720   4.8095

          k = 0.1195 0.4141 0.0000 (  4403 PWs)   bands (ev):

   -19.9700 -15.4524 -11.7171  -7.3758  -0.9412   4.7385   5.5723   5.7515

          k = 0.1195 0.4832 0.0000 (  4398 PWs)   bands (ev):

   -18.7175 -16.9933 -11.9463  -6.3395  -2.2594   5.6317   6.6296   7.3418

          k = 0.1793 0.3106 0.0000 (  4377 PWs)   bands (ev):

   -21.2047 -13.1564 -11.7969  -8.6905   1.0885   2.9951   3.8084   4.6608

          k = 0.1793 0.3796 0.0000 (  4397 PWs)   bands (ev):

   -20.1744 -14.4856 -12.6420  -7.5408  -0.4765   4.4548   5.2347   6.1685

          k = 0.1793 0.4486 0.0000 (  4392 PWs)   bands (ev):

   -18.9823 -15.9786 -13.0715  -6.3411  -1.9475   6.1761   6.7353   7.4508

          k = 0.1793 0.5177 0.0000 (  4391 PWs)   bands (ev):

   -17.9669 -17.1106 -13.2051  -5.6539  -2.7309   7.3778   7.4166   8.0171

          k = 0.2391 0.4141 0.0000 (  4385 PWs)   bands (ev):

   -19.0773 -15.2586 -13.8397  -6.3569  -1.7845   6.0341   6.4899   7.7807

          k = 0.2391 0.4832 0.0000 (  4372 PWs)   bands (ev):

   -17.8802 -16.3621 -14.3959  -5.2171  -2.9812   6.8497   7.8107   9.1089

          k = 0.2989 0.5177 0.0000 (  4389 PWs)   bands (ev):

   -16.8769 -16.8769 -15.0990  -4.0770  -4.0770   6.6337   9.1767   9.1767

     the Fermi energy is    -4.0770 ev

!    total energy              =     -22.78702434 Ry
     estimated scf accuracy    <          1.2E-11 Ry
     smearing contrib. (-TS)   =      -0.00005015 Ry
     internal energy E=F+TS    =     -22.78697419 Ry

     The total energy is F=E-TS. E is the sum of the following terms:
     one-electron contribution =    -401.83367578 Ry
     hartree contribution      =     201.57455664 Ry
     xc contribution           =      -7.09193970 Ry
     ewald contribution        =     184.56408465 Ry

     convergence has been achieved in   7 iterations

     Forces acting on atoms (cartesian axes, Ry/au):

     atom    1 type  1   force =     0.00000000    0.00000000    0.00000000
     atom    2 type  1   force =     0.00000000    0.00000000    0.00000000

     Total force =     0.000000     Total SCF correction =     0.000000


     Computing stress (Cartesian axis) and pressure

          total   stress  (Ry/bohr**3)                   (kbar)     P=        9.38
   0.00015219  -0.00000000   0.00000000           22.39       -0.00        0.00
  -0.00000000   0.00015219   0.00000000           -0.00       22.39        0.00
   0.00000000  -0.00000000  -0.00011317            0.00       -0.00      -16.65


     Writing output data file ./work/LiC410.save/
 
     init_run     :      0.17s CPU      0.19s WALL (       2 calls)
     electrons    :     21.71s CPU     23.42s WALL (       8 calls)
     update_pot   :      0.06s CPU      0.06s WALL (       6 calls)
     forces       :      0.05s CPU      0.06s WALL (       8 calls)
     stress       :      0.15s CPU      0.16s WALL (       8 calls)

     Called by init_run:
     wfcinit      :      0.10s CPU      0.11s WALL (       2 calls)
     potinit      :      0.04s CPU      0.05s WALL (       2 calls)
     hinit0       :      0.01s CPU      0.01s WALL (       2 calls)

     Called by electrons:
     c_bands      :     19.26s CPU     20.64s WALL (     122 calls)
     sum_band     :      2.19s CPU      2.34s WALL (     122 calls)
     v_of_rho     :      0.20s CPU      0.23s WALL (     128 calls)
     mix_rho      :      0.05s CPU      0.05s WALL (     122 calls)

     Called by c_bands:
     init_us_2    :      0.11s CPU      0.12s WALL (    7074 calls)
     cegterg      :     18.93s CPU     20.25s WALL (    3363 calls)

     Called by *egterg:
     cdiaghg      :      1.68s CPU      1.79s WALL (   18593 calls)
     h_psi        :     16.07s CPU     17.20s WALL (   18871 calls)
     g_psi        :      0.04s CPU      0.04s WALL (   15454 calls)

     Called by h_psi:
     h_psi:calbec :      0.45s CPU      0.48s WALL (   18871 calls)
     vloc_psi     :     15.32s CPU     16.39s WALL (   18871 calls)
     add_vuspsi   :      0.14s CPU      0.16s WALL (   18871 calls)

     General routines
     calbec       :      0.45s CPU      0.49s WALL (   19951 calls)
     fft          :      0.19s CPU      0.20s WALL (    1344 calls)
     ffts         :      0.01s CPU      0.01s WALL (     122 calls)
     fftw         :     16.55s CPU     17.71s WALL (  231856 calls)
 
     Parallel routines
     fft_scatt_xy :      0.89s CPU      0.95s WALL (  233322 calls)
     fft_scatt_yz :      6.79s CPU      7.25s WALL (  233322 calls)
 
     PWSCF        :     22.22s CPU     24.21s WALL

 
   This run was terminated on:  13:56:39  19Jan2024            

=------------------------------------------------------------------------------=
   JOB DONE.
=------------------------------------------------------------------------------=
