
     Program PWSCF v.6.7MaX starts on 19Jan2024 at 14:16:26 

     This program is part of the open-source Quantum ESPRESSO suite
     for quantum simulation of materials; please cite
         "P. Giannozzi et al., J. Phys.:Condens. Matter 21 395502 (2009);
         "P. Giannozzi et al., J. Phys.:Condens. Matter 29 465901 (2017);
          URL http://www.quantum-espresso.org", 
     in publications or presentations arising from this work. More details at
     http://www.quantum-espresso.org/quote

     Parallel version (MPI), running on    32 processors

     MPI processes distributed on     1 nodes
     R & G space division:  proc/nbgrp/npool/nimage =      32
     Waiting for input...
     Reading input from standard input

     Current dimensions of program PWSCF are:
     Max number of different atomic species (ntypx) = 10
     Max number of k-points (npk) =  40000
     Max angular momentum in pseudopotentials (lmaxx) =  3
     Message from routine read_pp_mesh:
     mesh size missing, using the one in header

     Subspace diagonalization in iterative solution of the eigenvalue problem:
     a serial algorithm will be used

 
     Parallelization info
     --------------------
     sticks:   dense  smooth     PW     G-vecs:    dense   smooth      PW
     Min           9       9      3                 1171     1171     189
     Max          10      10      4                 1220     1220     223
     Sum         313     313     97                38487    38487    6751
 


     bravais-lattice index     =            4
     lattice parameter (alat)  =       4.7900  a.u.
     unit-cell volume          =     804.7420 (a.u.)^3
     number of atoms/cell      =            2
     number of atomic types    =            1
     number of electrons       =         8.00
     number of Kohn-Sham states=            8
     kinetic-energy cutoff     =      50.0000  Ry
     charge density cutoff     =     200.0000  Ry
     scf convergence threshold =      1.0E-08
     mixing beta               =       0.7000
     number of iterations used =            8  plain     mixing
     energy convergence thresh.=      1.0E-04
     force convergence thresh. =      1.0E-08
     press convergence thresh. =      1.0E-03
     Exchange-correlation= PBE
                           (   1   4   3   4   0   0   0)
     nstep                     =           50


     celldm(1)=   4.790000  celldm(2)=   0.000000  celldm(3)=   8.455115
     celldm(4)=   0.000000  celldm(5)=   0.000000  celldm(6)=   0.000000

     crystal axes: (cart. coord. in units of alat)
               a(1) = (   1.000000   0.000000   0.000000 )  
               a(2) = (  -0.500000   0.866025   0.000000 )  
               a(3) = (   0.000000   0.000000   8.455115 )  

     reciprocal axes: (cart. coord. in units 2 pi/alat)
               b(1) = (  1.000000  0.577350  0.000000 )  
               b(2) = (  0.000000  1.154701  0.000000 )  
               b(3) = (  0.000000  0.000000  0.118272 )  


     PseudoPot. # 1 for C  read from file:
     /home/yhkim/qe-6.7/pseudo/ONCV1/1.2/C_ONCV_PBE-1.2.upf
     MD5 check sum: 1a5f83a7b1f58d24996abe00ed223ac6
     Pseudo is Norm-conserving, Zval =  4.0
     Generated using ONCVPSP code by D. R. Hamann
     Using radial grid of  602 points,  4 beta functions with: 
                l(1) =   0
                l(2) =   0
                l(3) =   1
                l(4) =   1

     atomic species   valence    mass     pseudopotential
        C              4.00    12.01070     C ( 1.00)

     24 Sym. Ops., with inversion, found



   Cartesian axes

     site n.     atom                  positions (alat units)
         1           C   tau(   1) = (  -0.0000000   0.5773503   4.2275574  )
         2           C   tau(   2) = (   0.5000000   0.2886751   4.2275574  )

     number of k points=    27  Methfessel-Paxton smearing, width (Ry)=  0.0100
                       cart. coord. in units 2pi/alat
        k(    1) = (   0.0000000   0.0000000   0.0000000), wk =   0.0088889
        k(    2) = (   0.0000000   0.0769800   0.0000000), wk =   0.0533333
        k(    3) = (   0.0000000   0.1539601   0.0000000), wk =   0.0533333
        k(    4) = (   0.0000000   0.2309401   0.0000000), wk =   0.0533333
        k(    5) = (   0.0000000   0.3079201   0.0000000), wk =   0.0533333
        k(    6) = (   0.0000000   0.3849002   0.0000000), wk =   0.0533333
        k(    7) = (   0.0000000   0.4618802   0.0000000), wk =   0.0533333
        k(    8) = (   0.0000000   0.5388603   0.0000000), wk =   0.0533333
        k(    9) = (   0.0666667   0.1154701   0.0000000), wk =   0.0533333
        k(   10) = (   0.0666667   0.1924501   0.0000000), wk =   0.1066667
        k(   11) = (   0.0666667   0.2694301   0.0000000), wk =   0.1066667
        k(   12) = (   0.0666667   0.3464102   0.0000000), wk =   0.1066667
        k(   13) = (   0.0666667   0.4233902   0.0000000), wk =   0.1066667
        k(   14) = (   0.0666667   0.5003702   0.0000000), wk =   0.1066667
        k(   15) = (   0.0666667   0.5773503   0.0000000), wk =   0.0533333
        k(   16) = (   0.1333333   0.2309401   0.0000000), wk =   0.0533333
        k(   17) = (   0.1333333   0.3079201   0.0000000), wk =   0.1066667
        k(   18) = (   0.1333333   0.3849002   0.0000000), wk =   0.1066667
        k(   19) = (   0.1333333   0.4618802   0.0000000), wk =   0.1066667
        k(   20) = (   0.1333333   0.5388603   0.0000000), wk =   0.1066667
        k(   21) = (   0.2000000   0.3464102   0.0000000), wk =   0.0533333
        k(   22) = (   0.2000000   0.4233902   0.0000000), wk =   0.1066667
        k(   23) = (   0.2000000   0.5003702   0.0000000), wk =   0.1066667
        k(   24) = (   0.2000000   0.5773503   0.0000000), wk =   0.0533333
        k(   25) = (   0.2666667   0.4618802   0.0000000), wk =   0.0533333
        k(   26) = (   0.2666667   0.5388603   0.0000000), wk =   0.1066667
        k(   27) = (   0.3333333   0.5773503   0.0000000), wk =   0.0177778

     Dense  grid:    38487 G-vectors     FFT dimensions: (  24,  24, 192)

     Estimated max dynamical RAM per process >       2.03 MB

     Estimated total dynamical RAM >      64.93 MB
 ----2D----2D----2D----2D----2D----2D----2D----2D----2D----2D----2D----2D
  The code is running with the 2D cutoff
  Please refer to:
  Sohier, T., Calandra, M., & Mauri, F. (2017), 
  Density functional perturbation theory for gated two-dimensional heterostructu
 res:
  Theoretical developments and application to flexural phonons in graphene.
  Physical Review B, 96(7), 75448. https://doi.org/10.1103/PhysRevB.96.075448
 ----2D----2D----2D----2D----2D----2D----2D----2D----2D----2D----2D----2D

     Initial potential from superposition of free atoms

     starting charge    7.98607, renormalised to    8.00000

     negative rho (up, down):  1.191E-04 0.000E+00
     Starting wfcs are random

     total cpu time spent up to now is        0.1 secs

     Self-consistent Calculation

     iteration #  1     ecut=    50.00 Ry     beta= 0.70
     Davidson diagonalization with overlap
     ethr =  1.00E-02,  avg # of iterations = 12.0

     negative rho (up, down):  5.949E-08 0.000E+00

     total cpu time spent up to now is        0.5 secs

     total energy              =     -22.75863979 Ry
     estimated scf accuracy    <       0.12846717 Ry

     iteration #  2     ecut=    50.00 Ry     beta= 0.70
     Davidson diagonalization with overlap
     ethr =  1.61E-03,  avg # of iterations =  2.4

     total cpu time spent up to now is        0.7 secs

     total energy              =     -22.78059503 Ry
     estimated scf accuracy    <       0.00204534 Ry

     iteration #  3     ecut=    50.00 Ry     beta= 0.70
     Davidson diagonalization with overlap
     ethr =  2.56E-05,  avg # of iterations = 10.0

     total cpu time spent up to now is        0.9 secs

     total energy              =     -22.78386111 Ry
     estimated scf accuracy    <       0.00013328 Ry

     iteration #  4     ecut=    50.00 Ry     beta= 0.70
     Davidson diagonalization with overlap
     ethr =  1.67E-06,  avg # of iterations =  5.7

     total cpu time spent up to now is        1.1 secs

     total energy              =     -22.78390209 Ry
     estimated scf accuracy    <       0.00000018 Ry

     iteration #  5     ecut=    50.00 Ry     beta= 0.70
     Davidson diagonalization with overlap
     ethr =  2.20E-09,  avg # of iterations =  4.8

     total cpu time spent up to now is        1.3 secs

     total energy              =     -22.78390457 Ry
     estimated scf accuracy    <       0.00000002 Ry

     iteration #  6     ecut=    50.00 Ry     beta= 0.70
     Davidson diagonalization with overlap
     ethr =  2.99E-10,  avg # of iterations =  2.0

     total cpu time spent up to now is        1.4 secs

     End of self-consistent calculation

          k = 0.0000 0.0000 0.0000 (  4879 PWs)   bands (ev):

   -23.3652 -11.5576  -7.5741  -7.5741  -0.9629  -0.2004   0.5938   0.9478

          k = 0.0000 0.0770 0.0000 (  4883 PWs)   bands (ev):

   -23.2654 -11.4410  -7.9864  -7.7779  -0.8278  -0.0639   0.7316   1.0847

          k = 0.0000 0.1540 0.0000 (  4837 PWs)   bands (ev):

   -22.9668 -11.0903  -9.0774  -8.2941  -0.4227   0.3454   1.1447   1.4951

          k = 0.0000 0.2309 0.0000 (  4835 PWs)   bands (ev):

   -22.4716 -10.5638 -10.5151  -8.9437   0.2517   1.0245   1.8329   2.1758

          k = 0.0000 0.3079 0.0000 (  4809 PWs)   bands (ev):

   -21.7843 -12.2195  -9.7286  -9.5781   1.1930   1.7457   2.0612   2.7325

          k = 0.0000 0.3849 0.0000 (  4782 PWs)   bands (ev):

   -20.9134 -13.8985 -10.1067  -8.7650   0.1233   2.3415   2.5240   3.2120

          k = 0.0000 0.4619 0.0000 (  4782 PWs)   bands (ev):

   -19.8797 -15.5060 -10.4833  -7.7050  -1.4767   2.2299   3.8795   4.6894

          k = 0.0000 0.5389 0.0000 (  4784 PWs)   bands (ev):

   -18.7854 -16.8970 -10.6757  -6.8280  -2.6428   2.1139   5.5896   6.4064

          k = 0.0667 0.1155 0.0000 (  4849 PWs)   bands (ev):

   -23.0663 -11.2069  -8.6917  -8.1851  -0.5577   0.2090   1.0070   1.3584

          k = 0.0667 0.1925 0.0000 (  4843 PWs)   bands (ev):

   -22.6693 -10.7436  -9.8978  -8.8538  -0.0177   0.7538   1.5581   1.9048

          k = 0.0667 0.2694 0.0000 (  4830 PWs)   bands (ev):

   -22.0780 -11.4114 -10.0618  -9.5558   0.7908   1.5622   2.3834   2.5105

          k = 0.0667 0.3464 0.0000 (  4814 PWs)   bands (ev):

   -21.2986 -13.0480 -10.1714  -9.1824   0.8859   1.8638   2.6668   3.0516

          k = 0.0667 0.4234 0.0000 (  4784 PWs)   bands (ev):

   -20.3438 -14.6778 -10.6395  -8.1542  -0.7514   2.7696   3.2247   4.0100

          k = 0.0667 0.5004 0.0000 (  4778 PWs)   bands (ev):

   -19.2533 -16.1958 -10.9311  -7.1242  -2.1827   2.6091   4.8025   5.6008

          k = 0.0667 0.5774 0.0000 (  4784 PWs)   bands (ev):

   -18.4264 -17.1693 -11.0301  -6.5869  -2.8594   2.5499   6.5374   6.7023

          k = 0.1333 0.2309 0.0000 (  4837 PWs)   bands (ev):

   -22.1763 -10.9698 -10.1733  -9.7387   0.6567   1.4327   2.2470   2.5879

          k = 0.1333 0.3079 0.0000 (  4810 PWs)   bands (ev):

   -21.4926 -12.3052 -10.5842  -9.3939   1.3700   1.5984   2.3811   3.2100

          k = 0.1333 0.3849 0.0000 (  4795 PWs)   bands (ev):

   -20.6274 -13.8117 -11.2237  -8.4364  -0.1610   2.8019   3.5866   4.1147

          k = 0.1333 0.4619 0.0000 (  4784 PWs)   bands (ev):

   -19.6023 -15.3306 -11.6464  -7.3765  -1.6511   3.8804   4.2846   5.0294

          k = 0.1333 0.5389 0.0000 (  4779 PWs)   bands (ev):

   -18.5196 -16.6762 -11.8582  -6.4773  -2.7830   3.7734   5.9629   6.5936

          k = 0.2000 0.3464 0.0000 (  4797 PWs)   bands (ev):

   -20.7227 -13.3031 -11.6632  -8.5323   0.0771   2.6701   3.4402   4.3107

          k = 0.2000 0.4234 0.0000 (  4795 PWs)   bands (ev):

   -19.7832 -14.5218 -12.4394  -7.5177  -1.2831   3.9970   4.7242   5.6297

          k = 0.2000 0.5004 0.0000 (  4789 PWs)   bands (ev):

   -18.7148 -15.8453 -12.8575  -6.4679  -2.5588   5.4277   5.6214   6.0525

          k = 0.2000 0.5774 0.0000 (  4800 PWs)   bands (ev):

   -17.9011 -16.7583 -12.9891  -5.8739  -3.2330   5.4107   6.6473   7.1636

          k = 0.2667 0.4619 0.0000 (  4795 PWs)   bands (ev):

   -18.7911 -15.3094 -13.4559  -6.4762  -2.4428   5.4252   5.8399   7.1299

          k = 0.2667 0.5389 0.0000 (  4780 PWs)   bands (ev):

   -17.7438 -16.2780 -13.9635  -5.4791  -3.4925   6.1935   6.9291   7.1953

          k = 0.3333 0.5774 0.0000 (  4788 PWs)   bands (ev):

   -16.8566 -16.8566 -14.4720  -4.4716  -4.4716   6.0311   7.7884   7.7884

     the Fermi energy is    -4.4716 ev

!    total energy              =     -22.78390458 Ry
     estimated scf accuracy    <          5.2E-10 Ry
     smearing contrib. (-TS)   =      -0.00005015 Ry
     internal energy E=F+TS    =     -22.78385443 Ry

     The total energy is F=E-TS. E is the sum of the following terms:
     one-electron contribution =    -365.82122957 Ry
     hartree contribution      =     183.47712276 Ry
     xc contribution           =      -6.89400342 Ry
     ewald contribution        =     166.45425580 Ry

     convergence has been achieved in   6 iterations

     Forces acting on atoms (cartesian axes, Ry/au):

     atom    1 type  1   force =     0.00000000    0.00000000    0.00000000
     atom    2 type  1   force =     0.00000000    0.00000000    0.00000000

     Total force =     0.000000     Total SCF correction =     0.000000


     Computing stress (Cartesian axis) and pressure

          total   stress  (Ry/bohr**3)                   (kbar)     P=      -45.48
  -0.00041396  -0.00000000   0.00000000          -60.90       -0.00        0.00
  -0.00000000  -0.00041396   0.00000000           -0.00      -60.90        0.00
   0.00000000  -0.00000000  -0.00009955            0.00       -0.00      -14.64


     BFGS Geometry Optimization
     Energy error            =      0.0E+00
     Gradient error          =      0.0E+00
     Cell gradient error     =      4.1E-04


     number of scf cycles    =   1
     number of bfgs steps    =   0

     enthalpy new            =     -22.7839045764 Ry

     new trust radius        =       0.0587156410 bohr
     new conv_thr            =       0.0000000100 Ry

     new unit-cell volume =    788.17177 a.u.^3 (   116.79501 Ang^3 )
     density =      0.34153 g/cm^3

CELL_PARAMETERS (alat=  4.79000000)
   0.989651069  -0.000000000   0.000000000
  -0.494825535   0.857062967   0.000000000
   0.000000000   0.000000000   8.455114823

ATOMIC_POSITIONS (crystal)
C             0.3333333333        0.6666666667        0.5000000000
C             0.6666666667        0.3333333333        0.5000000000



     Writing output data file ./work/LiC479.save/
     NEW-OLD atomic charge density approx. for the potential

     negative rho (up, down):  5.018E-06 0.000E+00
     extrapolated charge    7.83210, renormalised to    8.00000

     total cpu time spent up to now is        1.5 secs

     Self-consistent Calculation

     iteration #  1     ecut=    50.00 Ry     beta= 0.70
     Davidson diagonalization with overlap
     c_bands:  1 eigenvalues not converged
     c_bands:  3 eigenvalues not converged
     c_bands:  1 eigenvalues not converged
     c_bands:  3 eigenvalues not converged
     c_bands:  1 eigenvalues not converged
     c_bands:  2 eigenvalues not converged
     c_bands:  2 eigenvalues not converged
     c_bands:  1 eigenvalues not converged
     c_bands:  2 eigenvalues not converged
     ethr =  1.00E-06,  avg # of iterations = 16.4

     negative rho (up, down):  3.340E-07 0.000E+00

     total cpu time spent up to now is        2.0 secs

     total energy              =     -22.77691365 Ry
     estimated scf accuracy    <       0.00683050 Ry

     iteration #  2     ecut=    50.00 Ry     beta= 0.70
     Davidson diagonalization with overlap
     ethr =  8.54E-05,  avg # of iterations = 10.1

     negative rho (up, down):  5.869E-08 0.000E+00

     total cpu time spent up to now is        2.2 secs

     total energy              =     -22.79017118 Ry
     estimated scf accuracy    <       0.00620552 Ry

     iteration #  3     ecut=    50.00 Ry     beta= 0.70
     Davidson diagonalization with overlap
     ethr =  7.76E-05,  avg # of iterations =  1.0

     total cpu time spent up to now is        2.3 secs

     total energy              =     -22.78966475 Ry
     estimated scf accuracy    <       0.00137762 Ry

     iteration #  4     ecut=    50.00 Ry     beta= 0.70
     Davidson diagonalization with overlap
     ethr =  1.72E-05,  avg # of iterations =  3.2

     total cpu time spent up to now is        2.5 secs

     total energy              =     -22.78983584 Ry
     estimated scf accuracy    <       0.00003865 Ry

     iteration #  5     ecut=    50.00 Ry     beta= 0.70
     Davidson diagonalization with overlap
     ethr =  4.83E-07,  avg # of iterations =  4.7

     total cpu time spent up to now is        2.6 secs

     total energy              =     -22.78984016 Ry
     estimated scf accuracy    <       0.00003352 Ry

     iteration #  6     ecut=    50.00 Ry     beta= 0.70
     Davidson diagonalization with overlap
     ethr =  4.19E-07,  avg # of iterations =  1.0

     total cpu time spent up to now is        2.7 secs

     total energy              =     -22.78981838 Ry
     estimated scf accuracy    <       0.00003363 Ry

     iteration #  7     ecut=    50.00 Ry     beta= 0.70
     Davidson diagonalization with overlap
     ethr =  4.19E-07,  avg # of iterations =  3.5

     total cpu time spent up to now is        2.9 secs

     total energy              =     -22.78983403 Ry
     estimated scf accuracy    <       0.00000995 Ry

     iteration #  8     ecut=    50.00 Ry     beta= 0.70
     Davidson diagonalization with overlap
     ethr =  1.24E-07,  avg # of iterations =  1.0

     total cpu time spent up to now is        3.0 secs

     total energy              =     -22.78983737 Ry
     estimated scf accuracy    <       0.00002338 Ry

     iteration #  9     ecut=    50.00 Ry     beta= 0.70
     Davidson diagonalization with overlap
     ethr =  1.24E-07,  avg # of iterations =  1.0

     total cpu time spent up to now is        3.1 secs

     total energy              =     -22.78982941 Ry
     estimated scf accuracy    <       0.00003156 Ry

     iteration # 10     ecut=    50.00 Ry     beta= 0.70
     Davidson diagonalization with overlap
     ethr =  1.24E-07,  avg # of iterations =  1.0

     total cpu time spent up to now is        3.2 secs

     total energy              =     -22.78982564 Ry
     estimated scf accuracy    <       0.00001126 Ry

     iteration # 11     ecut=    50.00 Ry     beta= 0.70
     Davidson diagonalization with overlap
     ethr =  1.24E-07,  avg # of iterations =  1.0

     total cpu time spent up to now is        3.3 secs

     total energy              =     -22.78982541 Ry
     estimated scf accuracy    <       0.00000176 Ry

     iteration # 12     ecut=    50.00 Ry     beta= 0.70
     Davidson diagonalization with overlap
     ethr =  2.20E-08,  avg # of iterations =  2.0

     total cpu time spent up to now is        3.4 secs

     total energy              =     -22.78982563 Ry
     estimated scf accuracy    <       0.00000013 Ry

     iteration # 13     ecut=    50.00 Ry     beta= 0.70
     Davidson diagonalization with overlap
     ethr =  1.66E-09,  avg # of iterations =  1.6

     total cpu time spent up to now is        3.5 secs

     total energy              =     -22.78982558 Ry
     estimated scf accuracy    <       0.00000028 Ry

     iteration # 14     ecut=    50.00 Ry     beta= 0.70
     Davidson diagonalization with overlap
     ethr =  1.66E-09,  avg # of iterations =  1.0

     total cpu time spent up to now is        3.6 secs

     total energy              =     -22.78982551 Ry
     estimated scf accuracy    <       0.00000016 Ry

     iteration # 15     ecut=    50.00 Ry     beta= 0.70
     Davidson diagonalization with overlap
     ethr =  1.66E-09,  avg # of iterations =  2.0

     total cpu time spent up to now is        3.8 secs

     End of self-consistent calculation

          k = 0.0000 0.0000 0.0000 (  4879 PWs)   bands (ev):

   -23.5229 -11.6738  -7.4886  -7.4886  -0.9689  -0.2004   0.5927   0.9467

          k = 0.0000 0.0778 0.0000 (  4883 PWs)   bands (ev):

   -23.4213 -11.5541  -7.9045  -7.6992  -0.8311  -0.0610   0.7333   1.0866

          k = 0.0000 0.1556 0.0000 (  4837 PWs)   bands (ev):

   -23.1170 -11.1942  -9.0076  -8.2321  -0.4177   0.3572   1.1552   1.5059

          k = 0.0000 0.2334 0.0000 (  4835 PWs)   bands (ev):

   -22.6124 -10.6038 -10.5146  -8.9014   0.2707   1.0512   1.8579   2.2017

          k = 0.0000 0.3111 0.0000 (  4809 PWs)   bands (ev):

   -21.9117 -12.1967  -9.7963  -9.5543   1.2317   1.9124   2.2063   2.8352

          k = 0.0000 0.3889 0.0000 (  4782 PWs)   bands (ev):

   -21.0232 -13.9056 -10.0979  -8.8057   0.3276   2.4450   2.8547   3.2881

          k = 0.0000 0.4667 0.0000 (  4782 PWs)   bands (ev):

   -19.9658 -15.5457 -10.4846  -7.7144  -1.3273   2.6048   3.9778   4.7983

          k = 0.0000 0.5445 0.0000 (  4784 PWs)   bands (ev):

   -18.8329 -16.9801 -10.6822  -6.8083  -2.5349   2.4938   5.7233   6.5564

          k = 0.0674 0.1167 0.0000 (  4849 PWs)   bands (ev):

   -23.2184 -11.3139  -8.6160  -8.1198  -0.5555   0.2179   1.0146   1.3662

          k = 0.0674 0.1945 0.0000 (  4843 PWs)   bands (ev):

   -22.8139 -10.8384  -9.8361  -8.8089  -0.0043   0.7745   1.5771   1.9245

          k = 0.0674 0.2722 0.0000 (  4830 PWs)   bands (ev):

   -22.2112 -11.3727 -10.1385  -9.5301   0.8211   1.6019   2.4202   2.7151

          k = 0.0674 0.3500 0.0000 (  4814 PWs)   bands (ev):

   -21.4164 -13.0375 -10.1618  -9.2350   1.1186   1.9168   2.7317   3.4049

          k = 0.0674 0.4278 0.0000 (  4784 PWs)   bands (ev):

   -20.4413 -14.6985 -10.6418  -8.1775  -0.5744   3.1135   3.3424   4.1036

          k = 0.0674 0.5056 0.0000 (  4778 PWs)   bands (ev):

   -19.3223 -16.2520 -10.9407  -7.1154  -2.0554   2.9933   4.9196   5.7315

          k = 0.0674 0.5834 0.0000 (  4784 PWs)   bands (ev):

   -18.4501 -17.2731 -11.0421  -6.5593  -2.7570   2.9363   6.6959   6.8581

          k = 0.1347 0.2334 0.0000 (  4837 PWs)   bands (ev):

   -22.3113 -10.9171 -10.2530  -9.7207   0.6843   1.4681   2.2804   2.6210

          k = 0.1347 0.3111 0.0000 (  4810 PWs)   bands (ev):

   -21.6143 -12.2722 -10.5876  -9.4525   1.6260   1.6457   2.4386   3.2641

          k = 0.1347 0.3889 0.0000 (  4795 PWs)   bands (ev):

   -20.7315 -13.8079 -11.2394  -8.4682   0.0429   2.8749   3.6707   4.4675

          k = 0.1347 0.4667 0.0000 (  4784 PWs)   bands (ev):

   -19.6831 -15.3599 -11.6697  -7.3770  -1.4981   4.2388   4.4312   5.1475

          k = 0.1347 0.5445 0.0000 (  4779 PWs)   bands (ev):

   -18.5632 -16.7479 -11.8853  -6.4485  -2.6698   4.1767   6.1061   6.7557

          k = 0.2021 0.3500 0.0000 (  4797 PWs)   bands (ev):

   -20.8290 -13.2753 -11.6994  -8.5669   0.2934   2.7402   3.5206   4.3881

          k = 0.2021 0.4278 0.0000 (  4795 PWs)   bands (ev):

   -19.8693 -14.5165 -12.4915  -7.5233  -1.1100   4.0957   4.8351   5.7836

          k = 0.2021 0.5056 0.0000 (  4789 PWs)   bands (ev):

   -18.7736 -15.8759 -12.9130  -6.4415  -2.4274   5.6645   5.9462   6.1998

          k = 0.2021 0.5834 0.0000 (  4800 PWs)   bands (ev):

   -17.9198 -16.8324 -13.0452  -5.8276  -3.1251   5.8392   6.8120   7.3505

          k = 0.2695 0.4667 0.0000 (  4795 PWs)   bands (ev):

   -18.8542 -15.3024 -13.5458  -6.4513  -2.3021   5.5568   5.9800   7.2706

          k = 0.2695 0.5445 0.0000 (  4780 PWs)   bands (ev):

   -17.7749 -16.2972 -14.0660  -5.4237  -3.3833   6.3346   7.1489   7.5967

          k = 0.3368 0.5834 0.0000 (  4788 PWs)   bands (ev):

   -16.8651 -16.8651 -14.6105  -4.3877  -4.3877   6.1610   8.1175   8.1175

     the Fermi energy is    -4.3877 ev

!    total energy              =     -22.78982553 Ry
     estimated scf accuracy    <          2.6E-09 Ry
     smearing contrib. (-TS)   =      -0.00005015 Ry
     internal energy E=F+TS    =     -22.78977538 Ry

     The total energy is F=E-TS. E is the sum of the following terms:
     one-electron contribution =    -373.59615436 Ry
     hartree contribution      =     187.38368300 Ry
     xc contribution           =      -6.93732967 Ry
     ewald contribution        =     170.36002565 Ry

     convergence has been achieved in  15 iterations

     Forces acting on atoms (cartesian axes, Ry/au):

     atom    1 type  1   force =     0.00000000    0.00000000    0.00000000
     atom    2 type  1   force =     0.00000000    0.00000000    0.00000000

     Total force =     0.000000     Total SCF correction =     0.000000


     Computing stress (Cartesian axis) and pressure

          total   stress  (Ry/bohr**3)                   (kbar)     P=      -34.11
  -0.00029847  -0.00000000  -0.00000000          -43.91       -0.00       -0.00
  -0.00000000  -0.00029847  -0.00000000           -0.00      -43.91       -0.00
  -0.00000000  -0.00000000  -0.00009866           -0.00       -0.00      -14.51

     Energy error            =      5.9E-03
     Gradient error          =      0.0E+00
     Cell gradient error     =      3.0E-04


     number of scf cycles    =   2
     number of bfgs steps    =   1

     enthalpy old            =     -22.7839045764 Ry
     enthalpy new            =     -22.7898255258 Ry

     CASE: enthalpy_new < enthalpy_old

     new trust radius        =       0.0645872050 bohr
     new conv_thr            =            1.0E-10 Ry

     new unit-cell volume =    770.14359 a.u.^3 (   114.12351 Ang^3 )
     density =      0.34952 g/cm^3

CELL_PARAMETERS (alat=  4.79000000)
   0.978267246  -0.000000000   0.000000000
  -0.489133623   0.847204287   0.000000000
   0.000000000   0.000000000   8.455114823

ATOMIC_POSITIONS (crystal)
C             0.3333333333        0.6666666667        0.5000000000
C             0.6666666667        0.3333333333        0.5000000000



     Writing output data file ./work/LiC479.save/
     NEW-OLD atomic charge density approx. for the potential

     negative rho (up, down):  2.558E-06 0.000E+00
     extrapolated charge    7.81306, renormalised to    8.00000

     total cpu time spent up to now is        3.9 secs

     Self-consistent Calculation

     iteration #  1     ecut=    50.00 Ry     beta= 0.70
     Davidson diagonalization with overlap
     c_bands:  1 eigenvalues not converged
     c_bands:  2 eigenvalues not converged
     c_bands:  4 eigenvalues not converged
     c_bands:  1 eigenvalues not converged
     c_bands:  1 eigenvalues not converged
     c_bands:  1 eigenvalues not converged
     c_bands:  1 eigenvalues not converged
     c_bands:  2 eigenvalues not converged
     c_bands:  1 eigenvalues not converged
     c_bands:  2 eigenvalues not converged
     c_bands:  1 eigenvalues not converged
     ethr =  1.00E-06,  avg # of iterations = 16.4

     negative rho (up, down):  8.457E-08 0.000E+00

     total cpu time spent up to now is        4.3 secs

     total energy              =     -22.77798661 Ry
     estimated scf accuracy    <       0.00840576 Ry

     iteration #  2     ecut=    50.00 Ry     beta= 0.70
     Davidson diagonalization with overlap
     ethr =  1.05E-04,  avg # of iterations =  9.7

     negative rho (up, down):  1.114E-08 0.000E+00

     total cpu time spent up to now is        4.6 secs

     total energy              =     -22.79438408 Ry
     estimated scf accuracy    <       0.00772207 Ry

     iteration #  3     ecut=    50.00 Ry     beta= 0.70
     Davidson diagonalization with overlap
     ethr =  9.65E-05,  avg # of iterations =  1.1

     total cpu time spent up to now is        4.7 secs

     total energy              =     -22.79374301 Ry
     estimated scf accuracy    <       0.00171126 Ry

     iteration #  4     ecut=    50.00 Ry     beta= 0.70
     Davidson diagonalization with overlap
     ethr =  2.14E-05,  avg # of iterations =  3.1

     total cpu time spent up to now is        4.8 secs

     total energy              =     -22.79396533 Ry
     estimated scf accuracy    <       0.00003749 Ry

     iteration #  5     ecut=    50.00 Ry     beta= 0.70
     Davidson diagonalization with overlap
     ethr =  4.69E-07,  avg # of iterations =  4.0

     total cpu time spent up to now is        5.0 secs

     total energy              =     -22.79397415 Ry
     estimated scf accuracy    <       0.00002832 Ry

     iteration #  6     ecut=    50.00 Ry     beta= 0.70
     Davidson diagonalization with overlap
     ethr =  3.54E-07,  avg # of iterations =  1.0

     negative rho (up, down):  1.686E-08 0.000E+00

     total cpu time spent up to now is        5.1 secs

     total energy              =     -22.79398306 Ry
     estimated scf accuracy    <       0.00003481 Ry

     iteration #  7     ecut=    50.00 Ry     beta= 0.70
     Davidson diagonalization with overlap
     ethr =  3.54E-07,  avg # of iterations =  1.8

     total cpu time spent up to now is        5.2 secs

     total energy              =     -22.79395761 Ry
     estimated scf accuracy    <       0.00008598 Ry

     iteration #  8     ecut=    50.00 Ry     beta= 0.70
     Davidson diagonalization with overlap
     ethr =  3.54E-07,  avg # of iterations =  2.0

     total cpu time spent up to now is        5.3 secs

     total energy              =     -22.79395731 Ry
     estimated scf accuracy    <       0.00001358 Ry

     iteration #  9     ecut=    50.00 Ry     beta= 0.70
     Davidson diagonalization with overlap
     ethr =  1.70E-07,  avg # of iterations =  2.0

     total cpu time spent up to now is        5.4 secs

     total energy              =     -22.79395882 Ry
     estimated scf accuracy    <       0.00000014 Ry

     iteration # 10     ecut=    50.00 Ry     beta= 0.70
     Davidson diagonalization with overlap
     ethr =  1.80E-09,  avg # of iterations =  2.8

     total cpu time spent up to now is        5.6 secs

     total energy              =     -22.79395889 Ry
     estimated scf accuracy    <       0.00000009 Ry

     iteration # 11     ecut=    50.00 Ry     beta= 0.70
     Davidson diagonalization with overlap
     ethr =  1.16E-09,  avg # of iterations =  1.0

     total cpu time spent up to now is        5.7 secs

     total energy              =     -22.79395890 Ry
     estimated scf accuracy    <       0.00000008 Ry

     iteration # 12     ecut=    50.00 Ry     beta= 0.70
     Davidson diagonalization with overlap
     ethr =  9.60E-10,  avg # of iterations =  1.0

     total cpu time spent up to now is        5.8 secs

     total energy              =     -22.79395890 Ry
     estimated scf accuracy    <       0.00000002 Ry

     iteration # 13     ecut=    50.00 Ry     beta= 0.70
     Davidson diagonalization with overlap
     ethr =  2.21E-10,  avg # of iterations =  1.4

     total cpu time spent up to now is        5.9 secs

     total energy              =     -22.79395890 Ry
     estimated scf accuracy    <          7.1E-10 Ry

     iteration # 14     ecut=    50.00 Ry     beta= 0.70
     Davidson diagonalization with overlap
     ethr =  8.85E-12,  avg # of iterations =  2.3

     total cpu time spent up to now is        6.0 secs

     End of self-consistent calculation

          k = 0.0000 0.0000 0.0000 (  4879 PWs)   bands (ev):

   -23.6987 -11.8053  -7.3870  -7.3870  -0.9754  -0.2001   0.5923   0.9463

          k = 0.0000 0.0787 0.0000 (  4883 PWs)   bands (ev):

   -23.5950 -11.6820  -7.8076  -7.6055  -0.8345  -0.0573   0.7362   1.0895

          k = 0.0000 0.1574 0.0000 (  4837 PWs)   bands (ev):

   -23.2843 -11.3118  -8.9251  -8.1576  -0.4115   0.3710   1.1679   1.5189

          k = 0.0000 0.2361 0.0000 (  4835 PWs)   bands (ev):

   -22.7691 -10.7041 -10.4560  -8.8495   0.2927   1.0820   1.8872   2.2319

          k = 0.0000 0.3148 0.0000 (  4809 PWs)   bands (ev):

   -22.0535 -12.1682  -9.8725  -9.5235   1.2761   2.0213   2.4510   2.8906

          k = 0.0000 0.3935 0.0000 (  4782 PWs)   bands (ev):

   -21.1452 -13.9110 -10.0841  -8.8514   0.5595   2.5268   3.2647   3.3751

          k = 0.0000 0.4721 0.0000 (  4782 PWs)   bands (ev):

   -20.0615 -15.5876 -10.4823  -7.7243  -1.1578   3.0292   4.0919   4.9223

          k = 0.0000 0.5508 0.0000 (  4784 PWs)   bands (ev):

   -18.8851 -17.0709 -10.6859  -6.7850  -2.4129   2.9261   5.8758   6.7268

          k = 0.0681 0.1180 0.0000 (  4849 PWs)   bands (ev):

   -23.3878 -11.4350  -8.5266  -8.0416  -0.5525   0.2283   1.0240   1.3758

          k = 0.0681 0.1967 0.0000 (  4843 PWs)   bands (ev):

   -22.9749 -10.9456  -9.7632  -8.7538   0.0114   0.7984   1.5997   1.9477

          k = 0.0681 0.2754 0.0000 (  4830 PWs)   bands (ev):

   -22.3594 -11.3262 -10.2250  -9.4970   0.8560   1.6470   2.4627   2.7897

          k = 0.0681 0.3541 0.0000 (  4814 PWs)   bands (ev):

   -21.5473 -13.0231 -10.1469  -9.2941   1.3827   1.9776   2.8065   3.6013

          k = 0.0681 0.4328 0.0000 (  4784 PWs)   bands (ev):

   -20.5497 -14.7191 -10.6405  -8.2032  -0.3732   3.3373   3.6427   4.2104

          k = 0.0681 0.5115 0.0000 (  4778 PWs)   bands (ev):

   -19.3988 -16.3125 -10.9476  -7.1047  -1.9109   3.4295   5.0537   5.8803

          k = 0.0681 0.5902 0.0000 (  4784 PWs)   bands (ev):

   -18.4726 -17.3903 -11.0519  -6.5269  -2.6412   3.3759   6.8763   7.0355

          k = 0.1363 0.2361 0.0000 (  4837 PWs)   bands (ev):

   -22.4617 -10.8546 -10.3429  -9.6964   0.7160   1.5089   2.3195   2.6610

          k = 0.1363 0.3148 0.0000 (  4810 PWs)   bands (ev):

   -21.7497 -12.2324 -10.5873  -9.5184   1.6999   1.9170   2.5053   3.3265

          k = 0.1363 0.3935 0.0000 (  4795 PWs)   bands (ev):

   -20.8472 -13.8015 -11.2527  -8.5036   0.2752   2.9583   3.7666   4.6142

          k = 0.1363 0.4721 0.0000 (  4784 PWs)   bands (ev):

   -19.7727 -15.3906 -11.6915  -7.3769  -1.3240   4.4587   4.7840   5.2820

          k = 0.1363 0.5508 0.0000 (  4779 PWs)   bands (ev):

   -18.6108 -16.8267 -11.9114  -6.4148  -2.5413   4.6343   6.2695   6.9403

          k = 0.2044 0.3541 0.0000 (  4797 PWs)   bands (ev):

   -20.9470 -13.2411 -11.7365  -8.6057   0.5401   2.8203   3.6123   4.4770

          k = 0.2044 0.4328 0.0000 (  4795 PWs)   bands (ev):

   -19.9649 -14.5083 -12.5458  -7.5290  -0.9125   4.2084   4.9615   5.9097

          k = 0.2044 0.5115 0.0000 (  4789 PWs)   bands (ev):

   -18.8385 -15.9088 -12.9704  -6.4108  -2.2775   5.8346   6.3679   6.4111

          k = 0.2044 0.5902 0.0000 (  4800 PWs)   bands (ev):

   -17.9369 -16.9172 -13.1031  -5.7739  -3.0021   6.3234   7.0003   7.5606

          k = 0.2726 0.4721 0.0000 (  4795 PWs)   bands (ev):

   -18.9238 -15.2912 -13.6436  -6.4222  -2.1414   5.7067   6.1399   7.4325

          k = 0.2726 0.5508 0.0000 (  4780 PWs)   bands (ev):

   -17.8079 -16.3176 -14.1768  -5.3598  -3.2583   6.4957   7.3649   8.0738

          k = 0.3407 0.5902 0.0000 (  4788 PWs)   bands (ev):

   -16.8711 -16.8711 -14.7659  -4.2914  -4.2914   6.3091   8.4685   8.4685

     the Fermi energy is    -4.2914 ev

!    total energy              =     -22.79395890 Ry
     estimated scf accuracy    <          5.2E-11 Ry
     smearing contrib. (-TS)   =      -0.00005015 Ry
     internal energy E=F+TS    =     -22.79390875 Ry

     The total energy is F=E-TS. E is the sum of the following terms:
     one-electron contribution =    -382.44139427 Ry
     hartree contribution      =     191.82837911 Ry
     xc contribution           =      -6.98623711 Ry
     ewald contribution        =     174.80534352 Ry

     convergence has been achieved in  14 iterations

     Forces acting on atoms (cartesian axes, Ry/au):

     atom    1 type  1   force =     0.00000000    0.00000000    0.00000000
     atom    2 type  1   force =     0.00000000    0.00000000    0.00000000

     Total force =     0.000000     Total SCF correction =     0.000000


     Computing stress (Cartesian axis) and pressure

          total   stress  (Ry/bohr**3)                   (kbar)     P=      -20.21
  -0.00015717  -0.00000000   0.00000000          -23.12       -0.00        0.00
  -0.00000000  -0.00015717   0.00000000           -0.00      -23.12        0.00
   0.00000000   0.00000000  -0.00009788            0.00        0.00      -14.40

     Energy error            =      4.1E-03
     Gradient error          =      0.0E+00
     Cell gradient error     =      1.6E-04


     number of scf cycles    =   3
     number of bfgs steps    =   2

     enthalpy old            =     -22.7898255258 Ry
     enthalpy new            =     -22.7939589045 Ry

     CASE: enthalpy_new < enthalpy_old

     new trust radius        =       0.0701134177 bohr
     new conv_thr            =            1.0E-10 Ry

     new unit-cell volume =    750.80899 a.u.^3 (   111.25841 Ang^3 )
     density =      0.35852 g/cm^3

CELL_PARAMETERS (alat=  4.79000000)
   0.965909399  -0.000000000   0.000000000
  -0.482954699   0.836502077   0.000000000
   0.000000000   0.000000000   8.455114823

ATOMIC_POSITIONS (crystal)
C             0.3333333333        0.6666666667        0.5000000000
C             0.6666666667        0.3333333333        0.5000000000



     Writing output data file ./work/LiC479.save/
     NEW-OLD atomic charge density approx. for the potential

     negative rho (up, down):  3.192E-06 0.000E+00
     extrapolated charge    7.79435, renormalised to    8.00000

     total cpu time spent up to now is        6.1 secs

     Self-consistent Calculation

     iteration #  1     ecut=    50.00 Ry     beta= 0.70
     Davidson diagonalization with overlap
     c_bands:  1 eigenvalues not converged
     c_bands:  4 eigenvalues not converged
     c_bands:  1 eigenvalues not converged
     c_bands:  1 eigenvalues not converged
     c_bands:  1 eigenvalues not converged
     c_bands:  1 eigenvalues not converged
     ethr =  1.00E-06,  avg # of iterations = 17.0

     negative rho (up, down):  1.420E-07 0.000E+00

     total cpu time spent up to now is        6.5 secs

     total energy              =     -22.77602190 Ry
     estimated scf accuracy    <       0.01012866 Ry

     iteration #  2     ecut=    50.00 Ry     beta= 0.70
     Davidson diagonalization with overlap
     ethr =  1.27E-04,  avg # of iterations = 10.0

     negative rho (up, down):  2.124E-08 0.000E+00

     total cpu time spent up to now is        6.8 secs

     total energy              =     -22.79588317 Ry
     estimated scf accuracy    <       0.00941095 Ry

     iteration #  3     ecut=    50.00 Ry     beta= 0.70
     Davidson diagonalization with overlap
     ethr =  1.18E-04,  avg # of iterations =  1.0

     total cpu time spent up to now is        6.9 secs

     total energy              =     -22.79509823 Ry
     estimated scf accuracy    <       0.00208340 Ry

     iteration #  4     ecut=    50.00 Ry     beta= 0.70
     Davidson diagonalization with overlap
     ethr =  2.60E-05,  avg # of iterations =  3.4

     total cpu time spent up to now is        7.1 secs

     total energy              =     -22.79537410 Ry
     estimated scf accuracy    <       0.00004047 Ry

     iteration #  5     ecut=    50.00 Ry     beta= 0.70
     Davidson diagonalization with overlap
     ethr =  5.06E-07,  avg # of iterations =  4.3

     total cpu time spent up to now is        7.2 secs

     total energy              =     -22.79538959 Ry
     estimated scf accuracy    <       0.00002467 Ry

     iteration #  6     ecut=    50.00 Ry     beta= 0.70
     Davidson diagonalization with overlap
     ethr =  3.08E-07,  avg # of iterations =  1.0

     total cpu time spent up to now is        7.3 secs

     total energy              =     -22.79536707 Ry
     estimated scf accuracy    <       0.00004307 Ry

     iteration #  7     ecut=    50.00 Ry     beta= 0.70
     Davidson diagonalization with overlap
     ethr =  3.08E-07,  avg # of iterations =  2.1

     total cpu time spent up to now is        7.4 secs

     total energy              =     -22.79537081 Ry
     estimated scf accuracy    <       0.00000681 Ry

     iteration #  8     ecut=    50.00 Ry     beta= 0.70
     Davidson diagonalization with overlap
     ethr =  8.51E-08,  avg # of iterations =  1.0

     total cpu time spent up to now is        7.6 secs

     total energy              =     -22.79537045 Ry
     estimated scf accuracy    <       0.00000300 Ry

     iteration #  9     ecut=    50.00 Ry     beta= 0.70
     Davidson diagonalization with overlap
     ethr =  3.75E-08,  avg # of iterations =  1.0

     total cpu time spent up to now is        7.7 secs

     total energy              =     -22.79537059 Ry
     estimated scf accuracy    <       0.00000016 Ry

     iteration # 10     ecut=    50.00 Ry     beta= 0.70
     Davidson diagonalization with overlap
     ethr =  2.01E-09,  avg # of iterations =  2.5

     total cpu time spent up to now is        7.8 secs

     total energy              =     -22.79537062 Ry
     estimated scf accuracy    <       0.00000004 Ry

     iteration # 11     ecut=    50.00 Ry     beta= 0.70
     Davidson diagonalization with overlap
     ethr =  5.17E-10,  avg # of iterations =  1.5

     total cpu time spent up to now is        7.9 secs

     total energy              =     -22.79537063 Ry
     estimated scf accuracy    <          9.8E-09 Ry

     iteration # 12     ecut=    50.00 Ry     beta= 0.70
     Davidson diagonalization with overlap
     ethr =  1.23E-10,  avg # of iterations =  1.8

     total cpu time spent up to now is        8.0 secs

     total energy              =     -22.79537063 Ry
     estimated scf accuracy    <          1.5E-09 Ry

     iteration # 13     ecut=    50.00 Ry     beta= 0.70
     Davidson diagonalization with overlap
     ethr =  1.82E-11,  avg # of iterations =  2.2

     total cpu time spent up to now is        8.1 secs

     total energy              =     -22.79537063 Ry
     estimated scf accuracy    <          2.2E-10 Ry

     iteration # 14     ecut=    50.00 Ry     beta= 0.70
     Davidson diagonalization with overlap
     ethr =  2.75E-12,  avg # of iterations =  1.7

     total cpu time spent up to now is        8.3 secs

     End of self-consistent calculation

          k = 0.0000 0.0000 0.0000 (  4879 PWs)   bands (ev):

   -23.8921 -11.9523  -7.2677  -7.2677  -0.9824  -0.1998   0.5918   0.9457

          k = 0.0000 0.0797 0.0000 (  4883 PWs)   bands (ev):

   -23.7860 -11.8252  -7.6938  -7.4951  -0.8379  -0.0532   0.7394   1.0927

          k = 0.0000 0.1594 0.0000 (  4837 PWs)   bands (ev):

   -23.4683 -11.4433  -8.8285  -8.0689  -0.4043   0.3863   1.1823   1.5335

          k = 0.0000 0.2391 0.0000 (  4835 PWs)   bands (ev):

   -22.9414 -10.8161 -10.3867  -8.7865   0.3178   1.1164   1.9201   2.2656

          k = 0.0000 0.3188 0.0000 (  4809 PWs)   bands (ev):

   -22.2092 -12.1330  -9.9575  -9.4843   1.3265   2.1036   2.7611   2.9511

          k = 0.0000 0.3985 0.0000 (  4782 PWs)   bands (ev):

   -21.2792 -13.9134 -10.0642  -8.9019   0.8201   2.6132   3.4730   3.7280

          k = 0.0000 0.4782 0.0000 (  4782 PWs)   bands (ev):

   -20.1667 -15.6306 -10.4754  -7.7345  -0.9673   3.5014   4.2260   5.0616

          k = 0.0000 0.5579 0.0000 (  4784 PWs)   bands (ev):

   -18.9420 -17.1680 -10.6857  -6.7575  -2.2763   3.4133   6.0482   6.9181

          k = 0.0690 0.1195 0.0000 (  4849 PWs)   bands (ev):

   -23.5741 -11.5703  -8.4219  -7.9487  -0.5488   0.2399   1.0347   1.3866

          k = 0.0690 0.1992 0.0000 (  4843 PWs)   bands (ev):

   -23.1518 -11.0654  -9.6777  -8.6872   0.0294   0.8251   1.6252   1.9736

          k = 0.0690 0.2789 0.0000 (  4830 PWs)   bands (ev):

   -22.5223 -11.2709 -10.3215  -9.4551   0.8956   1.6971   2.5106   2.8447

          k = 0.0690 0.3586 0.0000 (  4814 PWs)   bands (ev):

   -21.6912 -13.0037 -10.1254  -9.3599   1.6787   2.0462   2.8918   3.6865

          k = 0.0690 0.4383 0.0000 (  4784 PWs)   bands (ev):

   -20.6687 -14.7386 -10.6343  -8.2313  -0.1470   3.4638   4.1047   4.3303

          k = 0.0690 0.5180 0.0000 (  4778 PWs)   bands (ev):

   -19.4829 -16.3760 -10.9508  -7.0915  -1.7488   3.9193   5.2064   6.0475

          k = 0.0690 0.5977 0.0000 (  4784 PWs)   bands (ev):

   -18.4924 -17.5211 -11.0582  -6.4892  -2.5116   3.8712   7.0796   7.2356

          k = 0.1380 0.2391 0.0000 (  4837 PWs)   bands (ev):

   -22.6270 -10.7811 -10.4433  -9.6646   0.7521   1.5545   2.3636   2.7059

          k = 0.1380 0.3188 0.0000 (  4810 PWs)   bands (ev):

   -21.8984 -12.1848 -10.5819  -9.5918   1.7613   2.2418   2.5837   3.3967

          k = 0.1380 0.3985 0.0000 (  4795 PWs)   bands (ev):

   -20.9742 -13.7915 -11.2623  -8.5427   0.5371   3.0524   3.8743   4.7210

          k = 0.1380 0.4782 0.0000 (  4784 PWs)   bands (ev):

   -19.8710 -15.4219 -11.7106  -7.3758  -1.1278   4.6080   5.2774   5.4331

          k = 0.1380 0.5579 0.0000 (  4779 PWs)   bands (ev):

   -18.6623 -16.9116 -11.9353  -6.3757  -2.3968   5.1479   6.4543   7.1477

          k = 0.2071 0.3586 0.0000 (  4797 PWs)   bands (ev):

   -21.0766 -13.1992 -11.7736  -8.6485   0.8189   2.9108   3.7153   4.5771

          k = 0.2071 0.4383 0.0000 (  4795 PWs)   bands (ev):

   -20.0696 -14.4966 -12.6008  -7.5345  -0.6892   4.3356   5.1037   6.0485

          k = 0.2071 0.5180 0.0000 (  4789 PWs)   bands (ev):

   -18.9093 -15.9435 -13.0278  -6.3752  -2.1082   6.0118   6.5574   6.9435

          k = 0.2071 0.5977 0.0000 (  4800 PWs)   bands (ev):

   -17.9510 -17.0135 -13.1609  -5.7123  -2.8634   6.8641   7.2140   7.7950

          k = 0.2761 0.4782 0.0000 (  4795 PWs)   bands (ev):

   -18.9997 -15.2747 -13.7483  -6.3885  -1.9593   5.8753   6.3204   7.6150

          k = 0.2761 0.5579 0.0000 (  4780 PWs)   bands (ev):

   -17.8425 -16.3389 -14.2939  -5.2868  -3.1166   6.6781   7.5959   8.6052

          k = 0.3451 0.5977 0.0000 (  4788 PWs)   bands (ev):

   -16.8732 -16.8732 -14.9381  -4.1818  -4.1818   6.4768   8.8388   8.8388

     the Fermi energy is    -4.1818 ev

!    total energy              =     -22.79537063 Ry
     estimated scf accuracy    <          8.7E-12 Ry
     smearing contrib. (-TS)   =      -0.00005015 Ry
     internal energy E=F+TS    =     -22.79532048 Ry

     The total energy is F=E-TS. E is the sum of the following terms:
     one-electron contribution =    -392.40765416 Ry
     hartree contribution      =     196.83706820 Ry
     xc contribution           =      -7.04091653 Ry
     ewald contribution        =     179.81618201 Ry

     convergence has been achieved in  14 iterations

     Forces acting on atoms (cartesian axes, Ry/au):

     atom    1 type  1   force =    -0.00000000   -0.00000000    0.00000000
     atom    2 type  1   force =     0.00000000    0.00000000    0.00000000

     Total force =     0.000000     Total SCF correction =     0.000000


     Computing stress (Cartesian axis) and pressure

          total   stress  (Ry/bohr**3)                   (kbar)     P=       -3.29
   0.00001487  -0.00000000   0.00000000            2.19       -0.00        0.00
  -0.00000000   0.00001487   0.00000000           -0.00        2.19        0.00
  -0.00000000  -0.00000000  -0.00009690           -0.00       -0.00      -14.25

     Energy error            =      1.4E-03
     Gradient error          =      1.8E-26
     Cell gradient error     =      1.5E-05


     number of scf cycles    =   4
     number of bfgs steps    =   3

     enthalpy old            =     -22.7939589045 Ry
     enthalpy new            =     -22.7953706258 Ry

     CASE: enthalpy_new < enthalpy_old

     new trust radius        =       0.0059910419 bohr
     new conv_thr            =            1.0E-10 Ry

     new unit-cell volume =    752.45149 a.u.^3 (   111.50181 Ang^3 )
     density =      0.35774 g/cm^3

CELL_PARAMETERS (alat=  4.79000000)
   0.966965351  -0.000000000   0.000000000
  -0.483482675   0.837416558   0.000000000
   0.000000000   0.000000000   8.455114823

ATOMIC_POSITIONS (crystal)
C             0.3333333333        0.6666666667        0.5000000000
C             0.6666666667        0.3333333333        0.5000000000



     Writing output data file ./work/LiC479.save/
     NEW-OLD atomic charge density approx. for the potential
     extrapolated charge    8.01743, renormalised to    8.00000

     total cpu time spent up to now is        8.3 secs

     Self-consistent Calculation

     iteration #  1     ecut=    50.00 Ry     beta= 0.70
     Davidson diagonalization with overlap
     c_bands:  1 eigenvalues not converged
     c_bands:  1 eigenvalues not converged
     c_bands:  1 eigenvalues not converged
     c_bands:  2 eigenvalues not converged
     ethr =  1.00E-06,  avg # of iterations = 12.5

     total cpu time spent up to now is        8.6 secs

     total energy              =     -22.79519479 Ry
     estimated scf accuracy    <       0.00009620 Ry

     iteration #  2     ecut=    50.00 Ry     beta= 0.70
     Davidson diagonalization with overlap
     c_bands:  1 eigenvalues not converged
     c_bands:  1 eigenvalues not converged
     c_bands:  1 eigenvalues not converged
     ethr =  1.20E-06,  avg # of iterations = 12.2

     total cpu time spent up to now is        8.9 secs

     total energy              =     -22.79538802 Ry
     estimated scf accuracy    <       0.00009073 Ry

     iteration #  3     ecut=    50.00 Ry     beta= 0.70
     Davidson diagonalization with overlap
     ethr =  1.13E-06,  avg # of iterations =  1.6

     total cpu time spent up to now is        9.1 secs

     total energy              =     -22.79538294 Ry
     estimated scf accuracy    <       0.00002084 Ry

     iteration #  4     ecut=    50.00 Ry     beta= 0.70
     Davidson diagonalization with overlap
     ethr =  2.60E-07,  avg # of iterations =  1.3

     total cpu time spent up to now is        9.2 secs

     total energy              =     -22.79538424 Ry
     estimated scf accuracy    <       0.00000408 Ry

     iteration #  5     ecut=    50.00 Ry     beta= 0.70
     Davidson diagonalization with overlap
     ethr =  5.09E-08,  avg # of iterations =  1.0

     total cpu time spent up to now is        9.3 secs

     total energy              =     -22.79538212 Ry
     estimated scf accuracy    <       0.00000426 Ry

     iteration #  6     ecut=    50.00 Ry     beta= 0.70
     Davidson diagonalization with overlap
     ethr =  5.09E-08,  avg # of iterations =  2.0

     total cpu time spent up to now is        9.4 secs

     total energy              =     -22.79538221 Ry
     estimated scf accuracy    <       0.00000041 Ry

     iteration #  7     ecut=    50.00 Ry     beta= 0.70
     Davidson diagonalization with overlap
     ethr =  5.12E-09,  avg # of iterations =  2.0

     total cpu time spent up to now is        9.5 secs

     total energy              =     -22.79538230 Ry
     estimated scf accuracy    <       0.00000001 Ry

     iteration #  8     ecut=    50.00 Ry     beta= 0.70
     Davidson diagonalization with overlap
     ethr =  1.64E-10,  avg # of iterations =  2.0

     total cpu time spent up to now is        9.6 secs

     total energy              =     -22.79538230 Ry
     estimated scf accuracy    <          5.7E-09 Ry

     iteration #  9     ecut=    50.00 Ry     beta= 0.70
     Davidson diagonalization with overlap
     ethr =  7.09E-11,  avg # of iterations =  2.0

     total cpu time spent up to now is        9.8 secs

     End of self-consistent calculation

          k = 0.0000 0.0000 0.0000 (  4879 PWs)   bands (ev):

   -23.8755 -11.9396  -7.2783  -7.2783  -0.9818  -0.1998   0.5919   0.9457

          k = 0.0000 0.0796 0.0000 (  4883 PWs)   bands (ev):

   -23.7696 -11.8128  -7.7039  -7.5049  -0.8376  -0.0535   0.7392   1.0924

          k = 0.0000 0.1592 0.0000 (  4837 PWs)   bands (ev):

   -23.4525 -11.4319  -8.8371  -8.0768  -0.4049   0.3850   1.1810   1.5322

          k = 0.0000 0.2388 0.0000 (  4835 PWs)   bands (ev):

   -22.9266 -10.8064 -10.3929  -8.7922   0.3157   1.1134   1.9173   2.2627

          k = 0.0000 0.3184 0.0000 (  4809 PWs)   bands (ev):

   -22.1959 -12.1362  -9.9502  -9.4879   1.3221   2.0972   2.7340   2.9460

          k = 0.0000 0.3980 0.0000 (  4782 PWs)   bands (ev):

   -21.2677 -13.9134 -10.0661  -8.8976   0.7975   2.6057   3.4645   3.6879

          k = 0.0000 0.4777 0.0000 (  4782 PWs)   bands (ev):

   -20.1576 -15.6270 -10.4762  -7.7337  -0.9839   3.4608   4.2139   5.0495

          k = 0.0000 0.5573 0.0000 (  4784 PWs)   bands (ev):

   -18.9371 -17.1598 -10.6859  -6.7599  -2.2881   3.3709   6.0332   6.9015

          k = 0.0689 0.1194 0.0000 (  4849 PWs)   bands (ev):

   -23.5581 -11.5586  -8.4311  -7.9570  -0.5491   0.2389   1.0338   1.3857

          k = 0.0689 0.1990 0.0000 (  4843 PWs)   bands (ev):

   -23.1366 -11.0551  -9.6853  -8.6932   0.0279   0.8228   1.6230   1.9714

          k = 0.0689 0.2786 0.0000 (  4830 PWs)   bands (ev):

   -22.5083 -11.2758 -10.3132  -9.4589   0.8921   1.6926   2.5065   2.8403

          k = 0.0689 0.3582 0.0000 (  4814 PWs)   bands (ev):

   -21.6788 -13.0055 -10.1275  -9.3542   1.6530   2.0402   2.8844   3.6794

          k = 0.0689 0.4379 0.0000 (  4784 PWs)   bands (ev):

   -20.6585 -14.7371 -10.6350  -8.2289  -0.1667   3.4538   4.0635   4.3200

          k = 0.0689 0.5175 0.0000 (  4778 PWs)   bands (ev):

   -19.4757 -16.3706 -10.9508  -7.0927  -1.7629   3.8768   5.1930   6.0330

          k = 0.0689 0.5971 0.0000 (  4784 PWs)   bands (ev):

   -18.4909 -17.5098 -11.0578  -6.4925  -2.5228   3.8281   7.0619   7.2182

          k = 0.1379 0.2388 0.0000 (  4837 PWs)   bands (ev):

   -22.6128 -10.7876 -10.4346  -9.6675   0.7490   1.5506   2.3598   2.7020

          k = 0.1379 0.3184 0.0000 (  4810 PWs)   bands (ev):

   -21.8856 -12.1891 -10.5826  -9.5855   1.7560   2.2138   2.5766   3.3907

          k = 0.1379 0.3980 0.0000 (  4795 PWs)   bands (ev):

   -20.9633 -13.7925 -11.2617  -8.5394   0.5143   3.0443   3.8650   4.7118

          k = 0.1379 0.4777 0.0000 (  4784 PWs)   bands (ev):

   -19.8626 -15.4193 -11.7091  -7.3760  -1.1448   4.5957   5.2339   5.4200

          k = 0.1379 0.5573 0.0000 (  4779 PWs)   bands (ev):

   -18.6579 -16.9044 -11.9334  -6.3791  -2.4094   5.1033   6.4382   7.1297

          k = 0.2068 0.3582 0.0000 (  4797 PWs)   bands (ev):

   -21.0655 -13.2030 -11.7706  -8.6448   0.7947   2.9029   3.7064   4.5684

          k = 0.2068 0.4379 0.0000 (  4795 PWs)   bands (ev):

   -20.0606 -14.4977 -12.5963  -7.5341  -0.7086   4.3245   5.0914   6.0364

          k = 0.2068 0.5175 0.0000 (  4789 PWs)   bands (ev):

   -18.9032 -15.9406 -13.0231  -6.3783  -2.1229   5.9966   6.5410   6.8973

          k = 0.2068 0.5971 0.0000 (  4800 PWs)   bands (ev):

   -17.9500 -17.0051 -13.1562  -5.7177  -2.8755   6.8172   7.1953   7.7747

          k = 0.2758 0.4777 0.0000 (  4795 PWs)   bands (ev):

   -18.9932 -15.2763 -13.7394  -6.3915  -1.9752   5.8606   6.3048   7.6448

          k = 0.2758 0.5573 0.0000 (  4780 PWs)   bands (ev):

   -17.8396 -16.3371 -14.2841  -5.2932  -3.1289   6.6622   7.5760   8.5595

          k = 0.3447 0.5971 0.0000 (  4788 PWs)   bands (ev):

   -16.8732 -16.8732 -14.9232  -4.1914  -4.1914   6.4621   8.8075   8.8075

     the Fermi energy is    -4.1914 ev

!    total energy              =     -22.79538230 Ry
     estimated scf accuracy    <          2.3E-11 Ry
     smearing contrib. (-TS)   =      -0.00005015 Ry
     internal energy E=F+TS    =     -22.79533215 Ry

     The total energy is F=E-TS. E is the sum of the following terms:
     one-electron contribution =    -391.54078130 Ry
     hartree contribution      =     196.40138448 Ry
     xc contribution           =      -7.03617970 Ry
     ewald contribution        =     179.38024437 Ry

     convergence has been achieved in   9 iterations

     Forces acting on atoms (cartesian axes, Ry/au):

     atom    1 type  1   force =     0.00000000    0.00000000    0.00000000
     atom    2 type  1   force =     0.00000000    0.00000000    0.00000000

     Total force =     0.000000     Total SCF correction =     0.000000


     Computing stress (Cartesian axis) and pressure

          total   stress  (Ry/bohr**3)                   (kbar)     P=       -4.82
  -0.00000063   0.00000000   0.00000000           -0.09        0.00        0.00
   0.00000000  -0.00000063  -0.00000000            0.00       -0.09       -0.00
   0.00000000   0.00000000  -0.00009699            0.00        0.00      -14.27

     Energy error            =      1.2E-05
     Gradient error          =      0.0E+00
     Cell gradient error     =      6.3E-07


     number of scf cycles    =   5
     number of bfgs steps    =   4

     enthalpy old            =     -22.7953706258 Ry
     enthalpy new            =     -22.7953822981 Ry

     CASE: enthalpy_new < enthalpy_old

     new trust radius        =       0.0002442156 bohr
     new conv_thr            =            1.0E-10 Ry

     new unit-cell volume =    752.38450 a.u.^3 (   111.49188 Ang^3 )
     density =      0.35777 g/cm^3

CELL_PARAMETERS (alat=  4.79000000)
   0.966922306  -0.000000000   0.000000000
  -0.483461153   0.837379281   0.000000000
   0.000000000   0.000000000   8.455114823

ATOMIC_POSITIONS (crystal)
C             0.3333333333        0.6666666667        0.5000000000
C             0.6666666667        0.3333333333        0.5000000000



     Writing output data file ./work/LiC479.save/
     NEW-OLD atomic charge density approx. for the potential
     extrapolated charge    7.99929, renormalised to    8.00000

     total cpu time spent up to now is        9.8 secs

     Self-consistent Calculation

     iteration #  1     ecut=    50.00 Ry     beta= 0.70
     Davidson diagonalization with overlap
     ethr =  1.00E-06,  avg # of iterations =  1.3

     Threshold (ethr) on eigenvalues was too large:
     Diagonalizing with lowered threshold

     Davidson diagonalization with overlap
     ethr =  1.71E-09,  avg # of iterations =  1.4

     total cpu time spent up to now is       10.1 secs

     total energy              =     -22.79538202 Ry
     estimated scf accuracy    <       0.00000015 Ry

     iteration #  2     ecut=    50.00 Ry     beta= 0.70
     Davidson diagonalization with overlap
     ethr =  1.90E-09,  avg # of iterations =  2.9

     total cpu time spent up to now is       10.2 secs

     total energy              =     -22.79538233 Ry
     estimated scf accuracy    <       0.00000014 Ry

     iteration #  3     ecut=    50.00 Ry     beta= 0.70
     Davidson diagonalization with overlap
     ethr =  1.78E-09,  avg # of iterations =  1.0

     total cpu time spent up to now is       10.3 secs

     total energy              =     -22.79538232 Ry
     estimated scf accuracy    <       0.00000003 Ry

     iteration #  4     ecut=    50.00 Ry     beta= 0.70
     Davidson diagonalization with overlap
     ethr =  4.16E-10,  avg # of iterations =  1.9

     total cpu time spent up to now is       10.4 secs

     total energy              =     -22.79538232 Ry
     estimated scf accuracy    <          5.0E-09 Ry

     iteration #  5     ecut=    50.00 Ry     beta= 0.70
     Davidson diagonalization with overlap
     ethr =  6.29E-11,  avg # of iterations =  1.0

     total cpu time spent up to now is       10.5 secs

     total energy              =     -22.79538232 Ry
     estimated scf accuracy    <          5.2E-09 Ry

     iteration #  6     ecut=    50.00 Ry     beta= 0.70
     Davidson diagonalization with overlap
     ethr =  6.29E-11,  avg # of iterations =  1.0

     total cpu time spent up to now is       10.6 secs

     total energy              =     -22.79538232 Ry
     estimated scf accuracy    <          1.9E-09 Ry

     iteration #  7     ecut=    50.00 Ry     beta= 0.70
     Davidson diagonalization with overlap
     ethr =  2.43E-11,  avg # of iterations =  2.0

     total cpu time spent up to now is       10.7 secs

     End of self-consistent calculation

          k = 0.0000 0.0000 0.0000 (  4879 PWs)   bands (ev):

   -23.8761 -11.9401  -7.2778  -7.2778  -0.9818  -0.1999   0.5919   0.9457

          k = 0.0000 0.0796 0.0000 (  4883 PWs)   bands (ev):

   -23.7702 -11.8132  -7.7035  -7.5045  -0.8376  -0.0536   0.7391   1.0924

          k = 0.0000 0.1592 0.0000 (  4837 PWs)   bands (ev):

   -23.4531 -11.4323  -8.8367  -8.0765  -0.4049   0.3850   1.1810   1.5322

          k = 0.0000 0.2388 0.0000 (  4835 PWs)   bands (ev):

   -22.9272 -10.8068 -10.3926  -8.7920   0.3157   1.1135   1.9174   2.2628

          k = 0.0000 0.3185 0.0000 (  4809 PWs)   bands (ev):

   -22.1964 -12.1360  -9.9504  -9.4877   1.3222   2.0974   2.7349   2.9461

          k = 0.0000 0.3981 0.0000 (  4782 PWs)   bands (ev):

   -21.2681 -13.9133 -10.0660  -8.8977   0.7984   2.6060   3.4649   3.6895

          k = 0.0000 0.4777 0.0000 (  4782 PWs)   bands (ev):

   -20.1580 -15.6271 -10.4762  -7.7337  -0.9832   3.4625   4.2144   5.0500

          k = 0.0000 0.5573 0.0000 (  4784 PWs)   bands (ev):

   -18.9373 -17.1601 -10.6859  -6.7598  -2.2876   3.3727   6.0338   6.9022

          k = 0.0689 0.1194 0.0000 (  4849 PWs)   bands (ev):

   -23.5587 -11.5591  -8.4307  -7.9566  -0.5491   0.2389   1.0338   1.3857

          k = 0.0689 0.1990 0.0000 (  4843 PWs)   bands (ev):

   -23.1372 -11.0555  -9.6850  -8.6929   0.0279   0.8228   1.6231   1.9714

          k = 0.0689 0.2786 0.0000 (  4830 PWs)   bands (ev):

   -22.5088 -11.2756 -10.3135  -9.4587   0.8922   1.6928   2.5066   2.8405

          k = 0.0689 0.3583 0.0000 (  4814 PWs)   bands (ev):

   -21.6793 -13.0054 -10.1273  -9.3544   1.6541   2.0405   2.8846   3.6796

          k = 0.0689 0.4379 0.0000 (  4784 PWs)   bands (ev):

   -20.6589 -14.7371 -10.6350  -8.2289  -0.1658   3.4542   4.0652   4.3203

          k = 0.0689 0.5175 0.0000 (  4778 PWs)   bands (ev):

   -19.4760 -16.3708 -10.9507  -7.0926  -1.7623   3.8786   5.1936   6.0335

          k = 0.0689 0.5971 0.0000 (  4784 PWs)   bands (ev):

   -18.4910 -17.5102 -11.0578  -6.4924  -2.5223   3.8299   7.0627   7.2189

          k = 0.1379 0.2388 0.0000 (  4837 PWs)   bands (ev):

   -22.6133 -10.7873 -10.4350  -9.6674   0.7491   1.5507   2.3600   2.7021

          k = 0.1379 0.3185 0.0000 (  4810 PWs)   bands (ev):

   -21.8861 -12.1889 -10.5825  -9.5857   1.7562   2.2150   2.5769   3.3909

          k = 0.1379 0.3981 0.0000 (  4795 PWs)   bands (ev):

   -20.9637 -13.7924 -11.2617  -8.5395   0.5153   3.0446   3.8653   4.7121

          k = 0.1379 0.4777 0.0000 (  4784 PWs)   bands (ev):

   -19.8629 -15.4194 -11.7092  -7.3759  -1.1441   4.5962   5.2357   5.4205

          k = 0.1379 0.5573 0.0000 (  4779 PWs)   bands (ev):

   -18.6581 -16.9046 -11.9335  -6.3790  -2.4088   5.1051   6.4389   7.1304

          k = 0.2068 0.3583 0.0000 (  4797 PWs)   bands (ev):

   -21.0659 -13.2028 -11.7706  -8.6449   0.7957   2.9032   3.7067   4.5688

          k = 0.2068 0.4379 0.0000 (  4795 PWs)   bands (ev):

   -20.0610 -14.4976 -12.5964  -7.5341  -0.7078   4.3249   5.0919   6.0369

          k = 0.2068 0.5175 0.0000 (  4789 PWs)   bands (ev):

   -18.9034 -15.9407 -13.0233  -6.3782  -2.1223   5.9972   6.5416   6.8992

          k = 0.2068 0.5971 0.0000 (  4800 PWs)   bands (ev):

   -17.9500 -17.0054 -13.1564  -5.7174  -2.8750   6.8192   7.1961   7.7755

          k = 0.2758 0.4777 0.0000 (  4795 PWs)   bands (ev):

   -18.9935 -15.2762 -13.7398  -6.3914  -1.9745   5.8612   6.3054   7.6454

          k = 0.2758 0.5573 0.0000 (  4780 PWs)   bands (ev):

   -17.8397 -16.3371 -14.2845  -5.2929  -3.1284   6.6629   7.5768   8.5613

          k = 0.3447 0.5971 0.0000 (  4788 PWs)   bands (ev):

   -16.8732 -16.8732 -14.9238  -4.1909  -4.1909   6.4628   8.8087   8.8087

     the Fermi energy is    -4.1909 ev

!    total energy              =     -22.79538232 Ry
     estimated scf accuracy    <          9.1E-12 Ry
     smearing contrib. (-TS)   =      -0.00005015 Ry
     internal energy E=F+TS    =     -22.79533217 Ry

     The total energy is F=E-TS. E is the sum of the following terms:
     one-electron contribution =    -391.57604562 Ry
     hartree contribution      =     196.41909778 Ry
     xc contribution           =      -7.03637018 Ry
     ewald contribution        =     179.39798585 Ry

     convergence has been achieved in   7 iterations

     Forces acting on atoms (cartesian axes, Ry/au):

     atom    1 type  1   force =    -0.00000000   -0.00000000    0.00000000
     atom    2 type  1   force =     0.00000000    0.00000000    0.00000000

     Total force =     0.000000     Total SCF correction =     0.000000


     Computing stress (Cartesian axis) and pressure

          total   stress  (Ry/bohr**3)                   (kbar)     P=       -4.76
  -0.00000000   0.00000000   0.00000000           -0.00        0.00        0.00
   0.00000000  -0.00000000  -0.00000000            0.00       -0.00       -0.00
   0.00000000   0.00000000  -0.00009700            0.00        0.00      -14.27

     Energy error            =      2.1E-08
     Gradient error          =      1.8E-26
     Cell gradient error     =      4.2E-09


     bfgs converged in   6 scf cycles and   5 bfgs steps
     (criteria: energy <  1.0E-04 Ry, force <  1.0E-08Ry/Bohr, cell <  1.0E-03kbar)

     End of BFGS Geometry Optimization

     Final enthalpy =     -22.7953823193 Ry

     File ./work/LiC479.bfgs deleted, as requested
Begin final coordinates
     new unit-cell volume =    752.38450 a.u.^3 (   111.49188 Ang^3 )
     density =      0.35777 g/cm^3

CELL_PARAMETERS (alat=  4.79000000)
   0.966922306  -0.000000000   0.000000000
  -0.483461153   0.837379281   0.000000000
   0.000000000   0.000000000   8.455114823

ATOMIC_POSITIONS (crystal)
C             0.3333333333        0.6666666667        0.5000000000
C             0.6666666667        0.3333333333        0.5000000000
End final coordinates



     Writing output data file ./work/LiC479.save/

     Final scf calculation at the relaxed structure.
     The G-vectors are recalculated for the final unit cell
     Results may differ from those at the preceding step.
 
     Parallelization info
     --------------------
     sticks:   dense  smooth     PW     G-vecs:    dense   smooth      PW
     Min           9       9      2                 1115     1115     170
     Max          10      10      3                 1144     1144     215
     Sum         301     301     91                35991    35991    6397
 


     bravais-lattice index     =            4
     lattice parameter (alat)  =       4.7900  a.u.
     unit-cell volume          =     752.3845 (a.u.)^3
     number of atoms/cell      =            2
     number of atomic types    =            1
     number of electrons       =         8.00
     number of Kohn-Sham states=            8
     kinetic-energy cutoff     =      50.0000  Ry
     charge density cutoff     =     200.0000  Ry
     scf convergence threshold =      1.0E-10
     mixing beta               =       0.7000
     number of iterations used =            8  plain     mixing
     press convergence thresh. =      1.0E-03
     Exchange-correlation= PBE
                           (   1   4   3   4   0   0   0)

     celldm(1)=   4.790000  celldm(2)=   0.000000  celldm(3)=   8.455115
     celldm(4)=   0.000000  celldm(5)=   0.000000  celldm(6)=   0.000000

     crystal axes: (cart. coord. in units of alat)
               a(1) = (   0.966922  -0.000000   0.000000 )  
               a(2) = (  -0.483461   0.837379   0.000000 )  
               a(3) = (   0.000000   0.000000   8.455115 )  

     reciprocal axes: (cart. coord. in units 2 pi/alat)
               b(1) = (  1.034209  0.597101  0.000000 )  
               b(2) = (  0.000000  1.194202  0.000000 )  
               b(3) = (  0.000000  0.000000  0.118272 )  


     PseudoPot. # 1 for C  read from file:
     /home/yhkim/qe-6.7/pseudo/ONCV1/1.2/C_ONCV_PBE-1.2.upf
     MD5 check sum: 1a5f83a7b1f58d24996abe00ed223ac6
     Pseudo is Norm-conserving, Zval =  4.0
     Generated using ONCVPSP code by D. R. Hamann
     Using radial grid of  602 points,  4 beta functions with: 
                l(1) =   0
                l(2) =   0
                l(3) =   1
                l(4) =   1

     atomic species   valence    mass     pseudopotential
        C              4.00    12.01070     C ( 1.00)

     24 Sym. Ops., with inversion, found



   Cartesian axes

     site n.     atom                  positions (alat units)
         1           C   tau(   1) = (  -0.0000000   0.5582529   4.2275574  )
         2           C   tau(   2) = (   0.4834612   0.2791264   4.2275574  )

     number of k points=    27  Methfessel-Paxton smearing, width (Ry)=  0.0100
                       cart. coord. in units 2pi/alat
        k(    1) = (   0.0000000   0.0000000   0.0000000), wk =   0.0088889
        k(    2) = (   0.0000000   0.0796135   0.0000000), wk =   0.0533333
        k(    3) = (   0.0000000   0.1592269   0.0000000), wk =   0.0533333
        k(    4) = (   0.0000000   0.2388404   0.0000000), wk =   0.0533333
        k(    5) = (   0.0000000   0.3184539   0.0000000), wk =   0.0533333
        k(    6) = (   0.0000000   0.3980673   0.0000000), wk =   0.0533333
        k(    7) = (   0.0000000   0.4776808   0.0000000), wk =   0.0533333
        k(    8) = (   0.0000000   0.5572943   0.0000000), wk =   0.0533333
        k(    9) = (   0.0689473   0.1194202   0.0000000), wk =   0.0533333
        k(   10) = (   0.0689473   0.1990337   0.0000000), wk =   0.1066667
        k(   11) = (   0.0689473   0.2786471   0.0000000), wk =   0.1066667
        k(   12) = (   0.0689473   0.3582606   0.0000000), wk =   0.1066667
        k(   13) = (   0.0689473   0.4378741   0.0000000), wk =   0.1066667
        k(   14) = (   0.0689473   0.5174875   0.0000000), wk =   0.1066667
        k(   15) = (   0.0689473   0.5971010   0.0000000), wk =   0.0533333
        k(   16) = (   0.1378946   0.2388404   0.0000000), wk =   0.0533333
        k(   17) = (   0.1378946   0.3184539   0.0000000), wk =   0.1066667
        k(   18) = (   0.1378946   0.3980673   0.0000000), wk =   0.1066667
        k(   19) = (   0.1378946   0.4776808   0.0000000), wk =   0.1066667
        k(   20) = (   0.1378946   0.5572943   0.0000000), wk =   0.1066667
        k(   21) = (   0.2068419   0.3582606   0.0000000), wk =   0.0533333
        k(   22) = (   0.2068419   0.4378741   0.0000000), wk =   0.1066667
        k(   23) = (   0.2068419   0.5174875   0.0000000), wk =   0.1066667
        k(   24) = (   0.2068419   0.5971010   0.0000000), wk =   0.0533333
        k(   25) = (   0.2757891   0.4776808   0.0000000), wk =   0.0533333
        k(   26) = (   0.2757891   0.5572943   0.0000000), wk =   0.1066667
        k(   27) = (   0.3447364   0.5971010   0.0000000), wk =   0.0177778

     Dense  grid:    35991 G-vectors     FFT dimensions: (  24,  24, 192)

     Estimated max dynamical RAM per process >       1.96 MB

     Estimated total dynamical RAM >      62.58 MB
 ----2D----2D----2D----2D----2D----2D----2D----2D----2D----2D----2D----2D
  The code is running with the 2D cutoff
  Please refer to:
  Sohier, T., Calandra, M., & Mauri, F. (2017), 
  Density functional perturbation theory for gated two-dimensional heterostructu
 res:
  Theoretical developments and application to flexural phonons in graphene.
  Physical Review B, 96(7), 75448. https://doi.org/10.1103/PhysRevB.96.075448
 ----2D----2D----2D----2D----2D----2D----2D----2D----2D----2D----2D----2D

     Initial potential from superposition of free atoms

     starting charge    7.98607, renormalised to    8.00000

     negative rho (up, down):  1.160E-04 0.000E+00
     Starting wfcs are random

     total cpu time spent up to now is       10.9 secs

     Self-consistent Calculation

     iteration #  1     ecut=    50.00 Ry     beta= 0.70
     Davidson diagonalization with overlap
     c_bands:  5 eigenvalues not converged
     c_bands:  5 eigenvalues not converged
     c_bands:  3 eigenvalues not converged
     c_bands:  5 eigenvalues not converged
     c_bands:  4 eigenvalues not converged
     c_bands:  3 eigenvalues not converged
     c_bands:  3 eigenvalues not converged
     c_bands:  2 eigenvalues not converged
     c_bands:  3 eigenvalues not converged
     c_bands:  2 eigenvalues not converged
     c_bands:  4 eigenvalues not converged
     c_bands:  4 eigenvalues not converged
     c_bands:  4 eigenvalues not converged
     c_bands:  3 eigenvalues not converged
     c_bands:  2 eigenvalues not converged
     c_bands:  4 eigenvalues not converged
     c_bands:  4 eigenvalues not converged
     c_bands:  4 eigenvalues not converged
     c_bands:  3 eigenvalues not converged
     c_bands:  3 eigenvalues not converged
     c_bands:  4 eigenvalues not converged
     c_bands:  3 eigenvalues not converged
     c_bands:  3 eigenvalues not converged
     c_bands:  3 eigenvalues not converged
     c_bands:  4 eigenvalues not converged
     c_bands:  3 eigenvalues not converged
     c_bands:  3 eigenvalues not converged
     ethr =  1.00E-06,  avg # of iterations = 22.2

     negative rho (up, down):  2.319E-05 0.000E+00

     total cpu time spent up to now is       11.6 secs

     total energy              =     -22.75990850 Ry
     estimated scf accuracy    <       0.20045361 Ry

     iteration #  2     ecut=    50.00 Ry     beta= 0.70
     Davidson diagonalization with overlap
     ethr =  2.51E-03,  avg # of iterations =  2.4

     negative rho (up, down):  3.025E-06 0.000E+00

     total cpu time spent up to now is       11.7 secs

     total energy              =     -22.79012800 Ry
     estimated scf accuracy    <       0.00234573 Ry

     iteration #  3     ecut=    50.00 Ry     beta= 0.70
     Davidson diagonalization with overlap
     ethr =  2.93E-05,  avg # of iterations =  8.7

     total cpu time spent up to now is       11.9 secs

     total energy              =     -22.79052644 Ry
     estimated scf accuracy    <       0.00017394 Ry

     iteration #  4     ecut=    50.00 Ry     beta= 0.70
     Davidson diagonalization with overlap
     ethr =  2.17E-06,  avg # of iterations =  5.9

     total cpu time spent up to now is       12.1 secs

     total energy              =     -22.79054020 Ry
     estimated scf accuracy    <       0.00000122 Ry

     iteration #  5     ecut=    50.00 Ry     beta= 0.70
     Davidson diagonalization with overlap
     ethr =  1.53E-08,  avg # of iterations =  3.9

     total cpu time spent up to now is       12.2 secs

     total energy              =     -22.79054158 Ry
     estimated scf accuracy    <       0.00000004 Ry

     iteration #  6     ecut=    50.00 Ry     beta= 0.70
     Davidson diagonalization with overlap
     ethr =  4.61E-10,  avg # of iterations =  2.7

     total cpu time spent up to now is       12.3 secs

     total energy              =     -22.79054159 Ry
     estimated scf accuracy    <          9.2E-10 Ry

     iteration #  7     ecut=    50.00 Ry     beta= 0.70
     Davidson diagonalization with overlap
     ethr =  1.15E-11,  avg # of iterations =  2.9

     total cpu time spent up to now is       12.5 secs

     End of self-consistent calculation

          k = 0.0000 0.0000 0.0000 (  4459 PWs)   bands (ev):

   -23.8834 -11.9434  -7.2671  -7.2671  -0.9835  -0.2037   0.5837   0.9388

          k = 0.0000 0.0796 0.0000 (  4461 PWs)   bands (ev):

   -23.7772 -11.8151  -7.6939  -7.4947  -0.8393  -0.0572   0.7310   1.0856

          k = 0.0000 0.1592 0.0000 (  4489 PWs)   bands (ev):

   -23.4601 -11.4348  -8.8273  -8.0669  -0.4065   0.3813   1.1729   1.5253

          k = 0.0000 0.2388 0.0000 (  4463 PWs)   bands (ev):

   -22.9339 -10.8088 -10.3823  -8.7810   0.3143   1.1099   1.9093   2.2560

          k = 0.0000 0.3185 0.0000 (  4505 PWs)   bands (ev):

   -22.2030 -12.1325  -9.9527  -9.4804   1.3209   2.0946   2.7362   2.9381

          k = 0.0000 0.3981 0.0000 (  4519 PWs)   bands (ev):

   -21.2748 -13.9153 -10.0600  -8.8984   0.7999   2.6048   3.4617   3.6860

          k = 0.0000 0.4777 0.0000 (  4515 PWs)   bands (ev):

   -20.1639 -15.6314 -10.4701  -7.7339  -0.9826   3.4583   4.2128   5.0471

          k = 0.0000 0.5573 0.0000 (  4521 PWs)   bands (ev):

   -18.9432 -17.1644 -10.6808  -6.7595  -2.2877   3.3673   6.0329   6.8997

          k = 0.0689 0.1194 0.0000 (  4491 PWs)   bands (ev):

   -23.5657 -11.5610  -8.4212  -7.9471  -0.5507   0.2353   1.0256   1.3789

          k = 0.0689 0.1990 0.0000 (  4477 PWs)   bands (ev):

   -23.1440 -11.0574  -9.6744  -8.6836   0.0264   0.8192   1.6149   1.9646

          k = 0.0689 0.2786 0.0000 (  4482 PWs)   bands (ev):

   -22.5156 -11.2692 -10.3149  -9.4498   0.8908   1.6894   2.4985   2.8336

          k = 0.0689 0.3583 0.0000 (  4498 PWs)   bands (ev):

   -21.6858 -13.0044 -10.1196  -9.3554   1.6571   2.0392   2.8814   3.6723

          k = 0.0689 0.4379 0.0000 (  4506 PWs)   bands (ev):

   -20.6652 -14.7399 -10.6285  -8.2305  -0.1637   3.4532   4.0621   4.3172

          k = 0.0689 0.5175 0.0000 (  4512 PWs)   bands (ev):

   -19.4820 -16.3751 -10.9451  -7.0942  -1.7613   3.8749   5.1924   6.0308

          k = 0.0689 0.5971 0.0000 (  4510 PWs)   bands (ev):

   -18.4970 -17.5139 -11.0523  -6.4933  -2.5216   3.8260   7.0625   7.2183

          k = 0.1379 0.2388 0.0000 (  4477 PWs)   bands (ev):

   -22.6200 -10.7810 -10.4365  -9.6593   0.7476   1.5473   2.3519   2.6954

          k = 0.1379 0.3185 0.0000 (  4477 PWs)   bands (ev):

   -21.8928 -12.1858 -10.5752  -9.5873   1.7548   2.2188   2.5737   3.3832

          k = 0.1379 0.3981 0.0000 (  4495 PWs)   bands (ev):

   -20.9701 -13.7926 -11.2563  -8.5409   0.5162   3.0434   3.8622   4.7043

          k = 0.1379 0.4777 0.0000 (  4505 PWs)   bands (ev):

   -19.8691 -15.4222 -11.7047  -7.3776  -1.1444   4.5954   5.2354   5.4178

          k = 0.1379 0.5573 0.0000 (  4503 PWs)   bands (ev):

   -18.6640 -16.9091 -11.9294  -6.3805  -2.4078   5.1048   6.4381   7.1291

          k = 0.2068 0.3583 0.0000 (  4481 PWs)   bands (ev):

   -21.0724 -13.2024 -11.7644  -8.6466   0.7975   2.9019   3.7036   4.5608

          k = 0.2068 0.4379 0.0000 (  4483 PWs)   bands (ev):

   -20.0671 -14.4987 -12.5918  -7.5346  -0.7060   4.3239   5.0894   6.0291

          k = 0.2068 0.5175 0.0000 (  4499 PWs)   bands (ev):

   -18.9093 -15.9440 -13.0200  -6.3794  -2.1222   5.9967   6.5402   6.9045

          k = 0.2068 0.5971 0.0000 (  4494 PWs)   bands (ev):

   -17.9557 -17.0090 -13.1533  -5.7177  -2.8748   6.8248   7.1952   7.7771

          k = 0.2758 0.4777 0.0000 (  4469 PWs)   bands (ev):

   -18.9992 -15.2779 -13.7367  -6.3916  -1.9731   5.8607   6.3041   7.5947

          k = 0.2758 0.5573 0.0000 (  4480 PWs)   bands (ev):

   -17.8448 -16.3405 -14.2828  -5.2929  -3.1290   6.6614   7.5777   8.5716

          k = 0.3447 0.5971 0.0000 (  4461 PWs)   bands (ev):

   -16.8770 -16.8770 -14.9228  -4.1895  -4.1895   6.4609   8.8165   8.8165

     the Fermi energy is    -4.1895 ev

!    total energy              =     -22.79054159 Ry
     estimated scf accuracy    <          1.1E-11 Ry
     smearing contrib. (-TS)   =      -0.00005015 Ry
     internal energy E=F+TS    =     -22.79049144 Ry

     The total energy is F=E-TS. E is the sum of the following terms:
     one-electron contribution =    -391.56638445 Ry
     hartree contribution      =     196.41399433 Ry
     xc contribution           =      -7.03608716 Ry
     ewald contribution        =     179.39798583 Ry

     convergence has been achieved in   7 iterations

     Forces acting on atoms (cartesian axes, Ry/au):

     atom    1 type  1   force =     0.00000000    0.00000000    0.00000000
     atom    2 type  1   force =    -0.00000000   -0.00000000    0.00000000

     Total force =     0.000000     Total SCF correction =     0.000000


     Computing stress (Cartesian axis) and pressure

          total   stress  (Ry/bohr**3)                   (kbar)     P=       -7.98
  -0.00002669   0.00000000   0.00000000           -3.93        0.00        0.00
   0.00000000  -0.00002669   0.00000000            0.00       -3.93        0.00
   0.00000000   0.00000000  -0.00010941            0.00        0.00      -16.09


     Writing output data file ./work/LiC479.save/
 
     init_run     :      0.13s CPU      0.15s WALL (       2 calls)
     electrons    :     10.94s CPU     11.97s WALL (       7 calls)
     update_pot   :      0.06s CPU      0.07s WALL (       5 calls)
     forces       :      0.06s CPU      0.06s WALL (       7 calls)
     stress       :      0.16s CPU      0.17s WALL (       7 calls)

     Called by init_run:
     wfcinit      :      0.09s CPU      0.10s WALL (       2 calls)
     potinit      :      0.01s CPU      0.01s WALL (       2 calls)
     hinit0       :      0.01s CPU      0.01s WALL (       2 calls)

     Called by electrons:
     c_bands      :      9.43s CPU     10.19s WALL (      73 calls)
     sum_band     :      1.33s CPU      1.43s WALL (      73 calls)
     v_of_rho     :      0.14s CPU      0.15s WALL (      79 calls)
     mix_rho      :      0.03s CPU      0.03s WALL (      73 calls)

     Called by c_bands:
     init_us_2    :      0.08s CPU      0.09s WALL (    4374 calls)
     cegterg      :      9.20s CPU      9.92s WALL (    1974 calls)

     Called by *egterg:
     cdiaghg      :      0.83s CPU      0.89s WALL (    9512 calls)
     h_psi        :      7.77s CPU      8.39s WALL (    9731 calls)
     g_psi        :      0.02s CPU      0.02s WALL (    7703 calls)

     Called by h_psi:
     h_psi:calbec :      0.29s CPU      0.31s WALL (    9731 calls)
     vloc_psi     :      7.33s CPU      7.91s WALL (    9731 calls)
     add_vuspsi   :      0.07s CPU      0.08s WALL (    9731 calls)

     General routines
     calbec       :      0.32s CPU      0.34s WALL (   10676 calls)
     fft          :      0.13s CPU      0.13s WALL (     845 calls)
     ffts         :      0.01s CPU      0.01s WALL (      73 calls)
     fftw         :      8.08s CPU      8.71s WALL (  117928 calls)
 
     Parallel routines
     fft_scatt_xy :      0.54s CPU      0.58s WALL (  118846 calls)
     fft_scatt_yz :      4.72s CPU      5.08s WALL (  118846 calls)
 
     PWSCF        :     11.43s CPU     12.77s WALL

 
   This run was terminated on:  14:16:39  19Jan2024            

=------------------------------------------------------------------------------=
   JOB DONE.
=------------------------------------------------------------------------------=
