
     Program PWSCF v.6.7MaX starts on 19Jan2024 at 13:37:51 

     This program is part of the open-source Quantum ESPRESSO suite
     for quantum simulation of materials; please cite
         "P. Giannozzi et al., J. Phys.:Condens. Matter 21 395502 (2009);
         "P. Giannozzi et al., J. Phys.:Condens. Matter 29 465901 (2017);
          URL http://www.quantum-espresso.org", 
     in publications or presentations arising from this work. More details at
     http://www.quantum-espresso.org/quote

     Parallel version (MPI), running on    32 processors

     MPI processes distributed on     1 nodes
     R & G space division:  proc/nbgrp/npool/nimage =      32
     Waiting for input...
     Reading input from standard input

     Current dimensions of program PWSCF are:
     Max number of different atomic species (ntypx) = 10
     Max number of k-points (npk) =  40000
     Max angular momentum in pseudopotentials (lmaxx) =  3
     Message from routine read_pp_mesh:
     mesh size missing, using the one in header

     Subspace diagonalization in iterative solution of the eigenvalue problem:
     a serial algorithm will be used

 
     Parallelization info
     --------------------
     sticks:   dense  smooth     PW     G-vecs:    dense   smooth      PW
     Min           8       8      2                 1009     1009     164
     Max          10      10      3                 1032     1032     207
     Sum         265     265     85                32559    32559    5995
 


     bravais-lattice index     =            4
     lattice parameter (alat)  =       4.4200  a.u.
     unit-cell volume          =     685.2203 (a.u.)^3
     number of atoms/cell      =            2
     number of atomic types    =            1
     number of electrons       =         8.00
     number of Kohn-Sham states=            8
     kinetic-energy cutoff     =      50.0000  Ry
     charge density cutoff     =     200.0000  Ry
     scf convergence threshold =      1.0E-08
     mixing beta               =       0.7000
     number of iterations used =            8  plain     mixing
     energy convergence thresh.=      1.0E-04
     force convergence thresh. =      1.0E-08
     press convergence thresh. =      1.0E-03
     Exchange-correlation= PBE
                           (   1   4   3   4   0   0   0)
     nstep                     =           50


     celldm(1)=   4.420000  celldm(2)=   0.000000  celldm(3)=   9.162896
     celldm(4)=   0.000000  celldm(5)=   0.000000  celldm(6)=   0.000000

     crystal axes: (cart. coord. in units of alat)
               a(1) = (   1.000000   0.000000   0.000000 )  
               a(2) = (  -0.500000   0.866025   0.000000 )  
               a(3) = (   0.000000   0.000000   9.162896 )  

     reciprocal axes: (cart. coord. in units 2 pi/alat)
               b(1) = (  1.000000  0.577350  0.000000 )  
               b(2) = (  0.000000  1.154701  0.000000 )  
               b(3) = (  0.000000  0.000000  0.109136 )  


     PseudoPot. # 1 for C  read from file:
     /home/yhkim/qe-6.7/pseudo/ONCV1/1.2/C_ONCV_PBE-1.2.upf
     MD5 check sum: 1a5f83a7b1f58d24996abe00ed223ac6
     Pseudo is Norm-conserving, Zval =  4.0
     Generated using ONCVPSP code by D. R. Hamann
     Using radial grid of  602 points,  4 beta functions with: 
                l(1) =   0
                l(2) =   0
                l(3) =   1
                l(4) =   1

     atomic species   valence    mass     pseudopotential
        C              4.00    12.01070     C ( 1.00)

     24 Sym. Ops., with inversion, found



   Cartesian axes

     site n.     atom                  positions (alat units)
         1           C   tau(   1) = (  -0.0000000   0.5773503   4.5814480  )
         2           C   tau(   2) = (   0.5000000   0.2886751   4.5814480  )

     number of k points=    27  Methfessel-Paxton smearing, width (Ry)=  0.0100
                       cart. coord. in units 2pi/alat
        k(    1) = (   0.0000000   0.0000000   0.0000000), wk =   0.0088889
        k(    2) = (   0.0000000   0.0769800   0.0000000), wk =   0.0533333
        k(    3) = (   0.0000000   0.1539601   0.0000000), wk =   0.0533333
        k(    4) = (   0.0000000   0.2309401   0.0000000), wk =   0.0533333
        k(    5) = (   0.0000000   0.3079201   0.0000000), wk =   0.0533333
        k(    6) = (   0.0000000   0.3849002   0.0000000), wk =   0.0533333
        k(    7) = (   0.0000000   0.4618802   0.0000000), wk =   0.0533333
        k(    8) = (   0.0000000   0.5388603   0.0000000), wk =   0.0533333
        k(    9) = (   0.0666667   0.1154701   0.0000000), wk =   0.0533333
        k(   10) = (   0.0666667   0.1924501   0.0000000), wk =   0.1066667
        k(   11) = (   0.0666667   0.2694301   0.0000000), wk =   0.1066667
        k(   12) = (   0.0666667   0.3464102   0.0000000), wk =   0.1066667
        k(   13) = (   0.0666667   0.4233902   0.0000000), wk =   0.1066667
        k(   14) = (   0.0666667   0.5003702   0.0000000), wk =   0.1066667
        k(   15) = (   0.0666667   0.5773503   0.0000000), wk =   0.0533333
        k(   16) = (   0.1333333   0.2309401   0.0000000), wk =   0.0533333
        k(   17) = (   0.1333333   0.3079201   0.0000000), wk =   0.1066667
        k(   18) = (   0.1333333   0.3849002   0.0000000), wk =   0.1066667
        k(   19) = (   0.1333333   0.4618802   0.0000000), wk =   0.1066667
        k(   20) = (   0.1333333   0.5388603   0.0000000), wk =   0.1066667
        k(   21) = (   0.2000000   0.3464102   0.0000000), wk =   0.0533333
        k(   22) = (   0.2000000   0.4233902   0.0000000), wk =   0.1066667
        k(   23) = (   0.2000000   0.5003702   0.0000000), wk =   0.1066667
        k(   24) = (   0.2000000   0.5773503   0.0000000), wk =   0.0533333
        k(   25) = (   0.2666667   0.4618802   0.0000000), wk =   0.0533333
        k(   26) = (   0.2666667   0.5388603   0.0000000), wk =   0.1066667
        k(   27) = (   0.3333333   0.5773503   0.0000000), wk =   0.0177778

     Dense  grid:    32559 G-vectors     FFT dimensions: (  20,  20, 192)

     Estimated max dynamical RAM per process >       1.78 MB

     Estimated total dynamical RAM >      56.89 MB
 ----2D----2D----2D----2D----2D----2D----2D----2D----2D----2D----2D----2D
  The code is running with the 2D cutoff
  Please refer to:
  Sohier, T., Calandra, M., & Mauri, F. (2017), 
  Density functional perturbation theory for gated two-dimensional heterostructu
 res:
  Theoretical developments and application to flexural phonons in graphene.
  Physical Review B, 96(7), 75448. https://doi.org/10.1103/PhysRevB.96.075448
 ----2D----2D----2D----2D----2D----2D----2D----2D----2D----2D----2D----2D

     Initial potential from superposition of free atoms

     starting charge    7.98607, renormalised to    8.00000

     negative rho (up, down):  1.070E-04 0.000E+00
     Starting wfcs are random

     total cpu time spent up to now is        0.1 secs

     Self-consistent Calculation

     iteration #  1     ecut=    50.00 Ry     beta= 0.70
     Davidson diagonalization with overlap
     ethr =  1.00E-02,  avg # of iterations = 11.8

     negative rho (up, down):  8.405E-08 0.000E+00

     total cpu time spent up to now is        0.5 secs

     total energy              =     -22.71739499 Ry
     estimated scf accuracy    <       0.26066484 Ry

     iteration #  2     ecut=    50.00 Ry     beta= 0.70
     Davidson diagonalization with overlap
     ethr =  3.26E-03,  avg # of iterations =  2.0

     total cpu time spent up to now is        0.7 secs

     total energy              =     -22.75670080 Ry
     estimated scf accuracy    <       0.00233853 Ry

     iteration #  3     ecut=    50.00 Ry     beta= 0.70
     Davidson diagonalization with overlap
     c_bands:  2 eigenvalues not converged
     c_bands:  1 eigenvalues not converged
     ethr =  2.92E-05,  avg # of iterations = 11.6

     total cpu time spent up to now is        1.0 secs

     total energy              =     -22.75787477 Ry
     estimated scf accuracy    <       0.00015670 Ry

     iteration #  4     ecut=    50.00 Ry     beta= 0.70
     Davidson diagonalization with overlap
     ethr =  1.96E-06,  avg # of iterations =  6.4

     total cpu time spent up to now is        1.2 secs

     total energy              =     -22.75791169 Ry
     estimated scf accuracy    <       0.00000189 Ry

     iteration #  5     ecut=    50.00 Ry     beta= 0.70
     Davidson diagonalization with overlap
     ethr =  2.36E-08,  avg # of iterations =  3.8

     total cpu time spent up to now is        1.3 secs

     total energy              =     -22.75791452 Ry
     estimated scf accuracy    <       0.00000013 Ry

     iteration #  6     ecut=    50.00 Ry     beta= 0.70
     Davidson diagonalization with overlap
     ethr =  1.65E-09,  avg # of iterations =  2.0

     total cpu time spent up to now is        1.4 secs

     total energy              =     -22.75791455 Ry
     estimated scf accuracy    <       0.00000001 Ry

     iteration #  7     ecut=    50.00 Ry     beta= 0.70
     Davidson diagonalization with overlap
     ethr =  1.26E-10,  avg # of iterations =  2.2

     total cpu time spent up to now is        1.6 secs

     End of self-consistent calculation

          k = 0.0000 0.0000 0.0000 (  3967 PWs)   bands (ev):

   -24.6275 -12.5248  -6.7520  -1.0105  -0.2075   0.5716   0.9273   2.2529

          k = 0.0000 0.0770 0.0000 (  4009 PWs)   bands (ev):

   -24.5128 -12.3830  -7.2127  -7.0184  -0.8525  -0.0465   0.7333   1.0887

          k = 0.0000 0.1540 0.0000 (  4043 PWs)   bands (ev):

   -24.1693 -11.9575  -8.4334  -7.6839  -0.3781   0.4363   1.2185   1.5726

          k = 0.0000 0.2309 0.0000 (  4059 PWs)   bands (ev):

   -23.5990 -11.2555 -10.1099  -8.5049   0.4126   1.2389   2.0273   2.3774

          k = 0.0000 0.3079 0.0000 (  4051 PWs)   bands (ev):

   -22.8056 -11.9916 -10.2933  -9.2966   1.5180   2.3474   3.1591   3.4727

          k = 0.0000 0.3849 0.0000 (  4084 PWs)   bands (ev):

   -21.7970 -13.9172  -9.9539  -9.1058   1.7921   2.9327   3.8413   4.6087

          k = 0.0000 0.4619 0.0000 (  4098 PWs)   bands (ev):

   -20.5816 -15.7846 -10.4145  -7.7851  -0.2629   4.6293   5.3732   5.5837

          k = 0.0000 0.5389 0.0000 (  4100 PWs)   bands (ev):

   -19.1894 -17.5131 -10.6514  -6.6604  -1.7783   5.2374   6.7106   7.6368

          k = 0.0667 0.1155 0.0000 (  4031 PWs)   bands (ev):

   -24.2836 -12.0986  -7.9906  -7.5454  -0.5362   0.2755   1.0568   1.4114

          k = 0.0667 0.1925 0.0000 (  4060 PWs)   bands (ev):

   -23.8267 -11.5349  -9.3345  -8.3926   0.0969   0.9184   1.7040   2.0560

          k = 0.0667 0.2694 0.0000 (  4062 PWs)   bands (ev):

   -23.1450 -11.0523 -10.7015  -9.2582   1.0458   1.8785   2.6747   3.0186

          k = 0.0667 0.3464 0.0000 (  4072 PWs)   bands (ev):

   -22.2441 -12.9258 -10.0096  -9.6221   2.3074   2.7492   3.2526   3.9680

          k = 0.0667 0.4234 0.0000 (  4086 PWs)   bands (ev):

   -21.1323 -14.8080 -10.5775  -8.3500   0.6991   3.8746   4.7798   5.5666

          k = 0.0667 0.5004 0.0000 (  4110 PWs)   bands (ev):

   -19.8247 -16.6038 -10.9321  -7.0521  -1.1506   5.6168   5.9274   6.6754

          k = 0.0667 0.5774 0.0000 (  4091 PWs)   bands (ev):

   -18.5547 -18.0392 -11.0492  -6.3536  -2.0395   5.7302   7.8541   8.0003

          k = 0.1333 0.2309 0.0000 (  4071 PWs)   bands (ev):

   -23.2585 -10.8392 -10.4896  -9.5100   0.8888   1.7202   2.5134   2.8604

          k = 0.1333 0.3079 0.0000 (  4086 PWs)   bands (ev):

   -22.4687 -12.0009 -10.5296  -9.8844   1.9951   2.8304   3.5147   3.6464

          k = 0.1333 0.3849 0.0000 (  4107 PWs)   bands (ev):

   -21.4660 -13.7549 -11.2655  -8.7042   1.5243   3.4113   4.2779   5.1009

          k = 0.1333 0.4619 0.0000 (  4107 PWs)   bands (ev):

   -20.2606 -15.5390 -11.7493  -7.3832  -0.3943   5.1283   6.0013   6.8632

          k = 0.1333 0.5389 0.0000 (  4109 PWs)   bands (ev):

   -18.8864 -17.2212 -11.9927  -6.2346  -1.8645   6.9989   7.2319   7.9313

          k = 0.2000 0.3464 0.0000 (  4091 PWs)   bands (ev):

   -21.5772 -13.0346 -11.8885  -8.8238   1.8789   3.2559   4.1002   4.9405

          k = 0.2000 0.4234 0.0000 (  4118 PWs)   bands (ev):

   -20.4807 -14.4586 -12.7721  -7.5673   0.1543   4.8204   5.6390   6.5559

          k = 0.2000 0.5004 0.0000 (  4133 PWs)   bands (ev):

   -19.1993 -16.0837 -13.2028  -6.2493  -1.4738   6.6710   7.2780   8.4852

          k = 0.2000 0.5774 0.0000 (  4129 PWs)   bands (ev):

   -17.9933 -17.4206 -13.3367  -5.4841  -2.3477   8.0341   8.6747   8.7817

          k = 0.2667 0.4619 0.0000 (  4151 PWs)   bands (ev):

   -19.3067 -15.2073 -14.1199  -6.2714  -1.2730   6.5166   7.0070   8.2965

          k = 0.2667 0.5389 0.0000 (  4145 PWs)   bands (ev):

   -17.9936 -16.4430 -14.6849  -5.0153  -2.5846   7.3727   8.4455   9.9227

          k = 0.3333 0.5774 0.0000 (  4137 PWs)   bands (ev):

   -16.8735 -16.8735 -15.5958  -3.7688  -3.7688   7.1123  10.0945  10.0945

     the Fermi energy is    -3.7264 ev

!    total energy              =     -22.75791455 Ry
     estimated scf accuracy    <          1.4E-10 Ry
     smearing contrib. (-TS)   =      -0.00003668 Ry
     internal energy E=F+TS    =     -22.75787788 Ry

     The total energy is F=E-TS. E is the sum of the following terms:
     one-electron contribution =    -430.44089220 Ry
     hartree contribution      =     215.94993760 Ry
     xc contribution           =      -7.24369956 Ry
     ewald contribution        =     198.97677627 Ry

     convergence has been achieved in   7 iterations

     Forces acting on atoms (cartesian axes, Ry/au):

     atom    1 type  1   force =     0.00000000    0.00000000    0.00000000
     atom    2 type  1   force =     0.00000000    0.00000000    0.00000000

     Total force =     0.000000     Total SCF correction =     0.000000


     Computing stress (Cartesian axis) and pressure

          total   stress  (Ry/bohr**3)                   (kbar)     P=       65.16
   0.00072617   0.00000000  -0.00000000          106.82        0.00       -0.00
   0.00000000   0.00072617   0.00000000            0.00      106.82        0.00
   0.00000000   0.00000000  -0.00012344            0.00        0.00      -18.16


     BFGS Geometry Optimization
     Energy error            =      0.0E+00
     Gradient error          =      0.0E+00
     Cell gradient error     =      7.3E-04


     number of scf cycles    =   1
     number of bfgs steps    =   0

     enthalpy new            =     -22.7579145550 Ry

     new trust radius        =       0.0950440191 bohr
     new conv_thr            =       0.0000000100 Ry

     new unit-cell volume =    710.32549 a.u.^3 (   105.25938 Ang^3 )
     density =      0.37895 g/cm^3

CELL_PARAMETERS (alat=  4.42000000)
   1.018154308   0.000000000   0.000000000
  -0.509077154   0.881747496   0.000000000
   0.000000000   0.000000000   9.162895928

ATOMIC_POSITIONS (crystal)
C             0.3333333333        0.6666666667        0.5000000000
C             0.6666666667        0.3333333333        0.5000000000



     Writing output data file ./work/LiC442.save/
     NEW-OLD atomic charge density approx. for the potential

     negative rho (up, down):  3.523E-05 0.000E+00
     extrapolated charge    8.28225, renormalised to    8.00000

     total cpu time spent up to now is        1.6 secs

     Self-consistent Calculation

     iteration #  1     ecut=    50.00 Ry     beta= 0.70
     Davidson diagonalization with overlap
     c_bands:  1 eigenvalues not converged
     c_bands:  1 eigenvalues not converged
     c_bands:  2 eigenvalues not converged
     c_bands:  4 eigenvalues not converged
     c_bands:  1 eigenvalues not converged
     c_bands:  2 eigenvalues not converged
     c_bands:  4 eigenvalues not converged
     c_bands:  2 eigenvalues not converged
     c_bands:  1 eigenvalues not converged
     c_bands:  1 eigenvalues not converged
     c_bands:  2 eigenvalues not converged
     c_bands:  4 eigenvalues not converged
     c_bands:  1 eigenvalues not converged
     c_bands:  4 eigenvalues not converged
     c_bands:  3 eigenvalues not converged
     c_bands:  5 eigenvalues not converged
     c_bands:  5 eigenvalues not converged
     c_bands:  5 eigenvalues not converged
     ethr =  1.00E-06,  avg # of iterations = 18.2

     total cpu time spent up to now is        2.3 secs

     total energy              =     580.44848214 Ry
     estimated scf accuracy    <     341.33441070 Ry

     iteration #  2     ecut=    50.00 Ry     beta= 0.70
     Davidson diagonalization with overlap
     c_bands:  2 eigenvalues not converged
     c_bands:  4 eigenvalues not converged
     c_bands:  5 eigenvalues not converged
     c_bands:  3 eigenvalues not converged
     c_bands:  3 eigenvalues not converged
     c_bands:  4 eigenvalues not converged
     c_bands:  5 eigenvalues not converged
     c_bands:  3 eigenvalues not converged
     c_bands:  1 eigenvalues not converged
     c_bands:  2 eigenvalues not converged
     c_bands:  5 eigenvalues not converged
     c_bands:  3 eigenvalues not converged
     c_bands:  5 eigenvalues not converged
     c_bands:  5 eigenvalues not converged
     c_bands:  3 eigenvalues not converged
     c_bands:  1 eigenvalues not converged
     c_bands:  5 eigenvalues not converged
     c_bands:  4 eigenvalues not converged
     ethr =  1.00E-02,  avg # of iterations = 31.2

     total cpu time spent up to now is        3.5 secs

     total energy              =    -133.51919687 Ry
     estimated scf accuracy    <     174.11960323 Ry

     iteration #  3     ecut=    50.00 Ry     beta= 0.70
     Davidson diagonalization with overlap
     c_bands:  1 eigenvalues not converged
     c_bands:  1 eigenvalues not converged
     c_bands:  2 eigenvalues not converged
     c_bands:  1 eigenvalues not converged
     c_bands:  1 eigenvalues not converged
     ethr =  1.00E-02,  avg # of iterations =  8.9

     total cpu time spent up to now is        3.7 secs

     total energy              =     -50.41028666 Ry
     estimated scf accuracy    <      60.15701589 Ry

     iteration #  4     ecut=    50.00 Ry     beta= 0.70
     Davidson diagonalization with overlap
     ethr =  1.00E-02,  avg # of iterations =  3.5

     total cpu time spent up to now is        3.9 secs

     total energy              =     -46.50863261 Ry
     estimated scf accuracy    <      15.05943114 Ry

     iteration #  5     ecut=    50.00 Ry     beta= 0.70
     Davidson diagonalization with overlap
     ethr =  1.00E-02,  avg # of iterations =  1.0

     total cpu time spent up to now is        4.0 secs

     total energy              =     -24.54917604 Ry
     estimated scf accuracy    <      12.83242196 Ry

     iteration #  6     ecut=    50.00 Ry     beta= 0.70
     Davidson diagonalization with overlap
     ethr =  1.00E-02,  avg # of iterations =  3.7

     total cpu time spent up to now is        4.1 secs

     total energy              =     -30.29195823 Ry
     estimated scf accuracy    <       1.08531366 Ry

     iteration #  7     ecut=    50.00 Ry     beta= 0.70
     Davidson diagonalization with overlap
     ethr =  1.00E-02,  avg # of iterations =  1.0

     total cpu time spent up to now is        4.2 secs

     total energy              =     -36.42689893 Ry
     estimated scf accuracy    <       4.02298130 Ry

     iteration #  8     ecut=    50.00 Ry     beta= 0.70
     Davidson diagonalization with overlap
     ethr =  1.00E-02,  avg # of iterations =  1.0

     total cpu time spent up to now is        4.3 secs

     total energy              =     -38.82558041 Ry
     estimated scf accuracy    <       7.28943376 Ry

     iteration #  9     ecut=    50.00 Ry     beta= 0.70
     Davidson diagonalization with overlap
     ethr =  1.00E-02,  avg # of iterations =  1.0

     total cpu time spent up to now is        4.5 secs

     total energy              =     -26.19909561 Ry
     estimated scf accuracy    <       8.55448374 Ry

     iteration # 10     ecut=    50.00 Ry     beta= 0.70
     Davidson diagonalization with overlap
     ethr =  1.00E-02,  avg # of iterations =  1.2

     negative rho (up, down):  1.810E-04 0.000E+00

     total cpu time spent up to now is        4.6 secs

     total energy              =     -22.67717159 Ry
     estimated scf accuracy    <       1.94296138 Ry

     iteration # 11     ecut=    50.00 Ry     beta= 0.70
     Davidson diagonalization with overlap
     ethr =  1.00E-02,  avg # of iterations =  4.0

     negative rho (up, down):  1.526E-04 0.000E+00

     total cpu time spent up to now is        4.7 secs

     total energy              =     -22.77378863 Ry
     estimated scf accuracy    <       0.00604187 Ry

     iteration # 12     ecut=    50.00 Ry     beta= 0.70
     Davidson diagonalization with overlap
     ethr =  7.55E-05,  avg # of iterations = 12.7

     negative rho (up, down):  2.329E-05 0.000E+00

     total cpu time spent up to now is        5.0 secs

     total energy              =     -22.77410598 Ry
     estimated scf accuracy    <       0.00660482 Ry

     iteration # 13     ecut=    50.00 Ry     beta= 0.70
     Davidson diagonalization with overlap
     ethr =  7.55E-05,  avg # of iterations =  2.9

     negative rho (up, down):  1.042E-04 0.000E+00

     total cpu time spent up to now is        5.2 secs

     total energy              =     -22.77379856 Ry
     estimated scf accuracy    <       0.00424906 Ry

     iteration # 14     ecut=    50.00 Ry     beta= 0.70
     Davidson diagonalization with overlap
     ethr =  5.31E-05,  avg # of iterations =  1.0

     negative rho (up, down):  6.373E-06 0.000E+00

     total cpu time spent up to now is        5.3 secs

     total energy              =     -22.79374088 Ry
     estimated scf accuracy    <       0.00289924 Ry

     iteration # 15     ecut=    50.00 Ry     beta= 0.70
     Davidson diagonalization with overlap
     ethr =  3.62E-05,  avg # of iterations =  6.9

     negative rho (up, down):  3.329E-07 0.000E+00

     total cpu time spent up to now is        5.5 secs

     total energy              =     -22.80286080 Ry
     estimated scf accuracy    <       0.06825269 Ry

     iteration # 16     ecut=    50.00 Ry     beta= 0.70
     Davidson diagonalization with overlap
     ethr =  3.62E-05,  avg # of iterations =  1.0

     negative rho (up, down):  4.265E-05 0.000E+00

     total cpu time spent up to now is        5.6 secs

     total energy              =     -22.79882877 Ry
     estimated scf accuracy    <       0.06769600 Ry

     iteration # 17     ecut=    50.00 Ry     beta= 0.70
     Davidson diagonalization with overlap
     ethr =  3.62E-05,  avg # of iterations =  1.0

     total cpu time spent up to now is        5.7 secs

     total energy              =     -22.81852900 Ry
     estimated scf accuracy    <       0.06001892 Ry

     iteration # 18     ecut=    50.00 Ry     beta= 0.70
     Davidson diagonalization with overlap
     ethr =  3.62E-05,  avg # of iterations =  2.4

     negative rho (up, down):  3.842E-04 0.000E+00

     total cpu time spent up to now is        5.9 secs

     total energy              =     -22.77719888 Ry
     estimated scf accuracy    <       0.10657539 Ry

     iteration # 19     ecut=    50.00 Ry     beta= 0.70
     Davidson diagonalization with overlap
     ethr =  3.62E-05,  avg # of iterations =  7.0

     negative rho (up, down):  2.414E-04 0.000E+00

     total cpu time spent up to now is        6.1 secs

     total energy              =     -22.77758631 Ry
     estimated scf accuracy    <       0.02426551 Ry

     iteration # 20     ecut=    50.00 Ry     beta= 0.70
     Davidson diagonalization with overlap
     ethr =  3.62E-05,  avg # of iterations =  2.0

     negative rho (up, down):  2.899E-04 0.000E+00

     total cpu time spent up to now is        6.2 secs

     total energy              =     -22.77469759 Ry
     estimated scf accuracy    <       0.01049094 Ry

     iteration # 21     ecut=    50.00 Ry     beta= 0.70
     Davidson diagonalization with overlap
     ethr =  3.62E-05,  avg # of iterations =  2.1

     negative rho (up, down):  9.500E-07 0.000E+00

     total cpu time spent up to now is        6.3 secs

     total energy              =     -22.77412806 Ry
     estimated scf accuracy    <       0.00350303 Ry

     iteration # 22     ecut=    50.00 Ry     beta= 0.70
     Davidson diagonalization with overlap
     ethr =  3.62E-05,  avg # of iterations =  1.6

     negative rho (up, down):  4.200E-05 0.000E+00

     total cpu time spent up to now is        6.4 secs

     total energy              =     -22.77364853 Ry
     estimated scf accuracy    <       0.00137023 Ry

     iteration # 23     ecut=    50.00 Ry     beta= 0.70
     Davidson diagonalization with overlap
     ethr =  1.71E-05,  avg # of iterations =  2.7

     negative rho (up, down):  4.047E-07 0.000E+00

     total cpu time spent up to now is        6.6 secs

     total energy              =     -22.77365802 Ry
     estimated scf accuracy    <       0.00020544 Ry

     iteration # 24     ecut=    50.00 Ry     beta= 0.70
     Davidson diagonalization with overlap
     c_bands:  1 eigenvalues not converged
     c_bands:  1 eigenvalues not converged
     ethr =  2.57E-06,  avg # of iterations =  7.5

     total cpu time spent up to now is        6.8 secs

     total energy              =     -22.77366270 Ry
     estimated scf accuracy    <       0.00002578 Ry

     iteration # 25     ecut=    50.00 Ry     beta= 0.70
     Davidson diagonalization with overlap
     ethr =  3.22E-07,  avg # of iterations =  2.8

     total cpu time spent up to now is        6.9 secs

     total energy              =     -22.77366804 Ry
     estimated scf accuracy    <       0.00000002 Ry

     iteration # 26     ecut=    50.00 Ry     beta= 0.70
     Davidson diagonalization with overlap
     ethr =  2.27E-10,  avg # of iterations =  4.4

     total cpu time spent up to now is        7.1 secs

     total energy              =     -22.77366837 Ry
     estimated scf accuracy    <       0.00000001 Ry

     iteration # 27     ecut=    50.00 Ry     beta= 0.70
     Davidson diagonalization with overlap
     ethr =  1.30E-10,  avg # of iterations =  1.0

     total cpu time spent up to now is        7.2 secs

     End of self-consistent calculation

          k = 0.0000 0.0000 0.0000 (  3967 PWs)   bands (ev):

   -24.3328 -12.2885  -6.9265  -6.9265  -1.0009  -0.2079   0.5707   0.9268

          k =-0.0000 0.0756 0.0000 (  4009 PWs)   bands (ev):

   -24.2214 -12.1527  -7.3785  -7.1790  -0.8483  -0.0527   0.7267   1.0824

          k =-0.0000 0.1512 0.0000 (  4043 PWs)   bands (ev):

   -23.8879 -11.7450  -8.5724  -7.8112  -0.3903   0.4126   1.1948   1.5488

          k =-0.0000 0.2268 0.0000 (  4059 PWs)   bands (ev):

   -23.3341 -11.0728 -10.2067  -8.5925   0.3729   1.1860   1.9750   2.3243

          k =-0.0000 0.3024 0.0000 (  4051 PWs)   bands (ev):

   -22.5639 -12.0374 -10.1520  -9.3474   1.4394   2.2499   3.0663   3.3318

          k =-0.0000 0.3780 0.0000 (  4084 PWs)   bands (ev):

   -21.5860 -13.9084  -9.9754  -9.0172   1.4111   2.8033   3.6887   4.4529

          k =-0.0000 0.4536 0.0000 (  4098 PWs)   bands (ev):

   -20.4099 -15.7191 -10.4155  -7.7586  -0.5380   4.3788   4.7124   5.3700

          k =-0.0000 0.5293 0.0000 (  4100 PWs)   bands (ev):

   -19.0814 -17.3749 -10.6421  -6.6931  -1.9697   4.5073   6.4405   7.3448

          k = 0.0655 0.1134 0.0000 (  4031 PWs)   bands (ev):

   -23.9989 -11.8801  -8.1421  -7.6792  -0.5429   0.2576   1.0388   1.3935

          k = 0.0655 0.1890 0.0000 (  4060 PWs)   bands (ev):

   -23.5553 -11.3402  -9.4553  -8.4868   0.0681   0.8773   1.6631   2.0148

          k = 0.0655 0.2646 0.0000 (  4062 PWs)   bands (ev):

   -22.8934 -11.1272 -10.5425  -9.3152   0.9837   1.8021   2.5994   2.9416

          k = 0.0655 0.3402 0.0000 (  4072 PWs)   bands (ev):

   -22.0192 -12.9475 -10.0357  -9.5102   2.2008   2.3446   3.0893   3.8460

          k = 0.0655 0.4158 0.0000 (  4086 PWs)   bands (ev):

   -20.9420 -14.7740 -10.5801  -8.2959   0.3684   3.7106   4.5952   5.1640

          k = 0.0655 0.4914 0.0000 (  4110 PWs)   bands (ev):

   -19.6811 -16.5097 -10.9206  -7.0620  -1.3823   5.0055   5.5694   6.4195

          k = 0.0655 0.5671 0.0000 (  4091 PWs)   bands (ev):

   -18.5321 -17.8192 -11.0326  -6.4025  -2.2200   4.9874   7.5411   7.6905

          k = 0.1310 0.2268 0.0000 (  4071 PWs)   bands (ev):

   -23.0035 -10.6742 -10.5927  -9.5513   0.8322   1.6499   2.4438   2.7900

          k = 0.1310 0.3024 0.0000 (  4086 PWs)   bands (ev):

   -22.2370 -12.0633 -10.5341  -9.7608   1.8995   2.7109   3.0294   3.5364

          k = 0.1310 0.3780 0.0000 (  4107 PWs)   bands (ev):

   -21.2650 -13.7604 -11.2500  -8.6332   1.1361   3.2653   4.1118   4.9391

          k = 0.1310 0.4536 0.0000 (  4107 PWs)   bands (ev):

   -20.0991 -15.4856 -11.7200  -7.3742  -0.6808   4.9194   5.7694   6.4043

          k = 0.1310 0.5293 0.0000 (  4109 PWs)   bands (ev):

   -18.7882 -17.0945 -11.9562  -6.2851  -2.0699   6.3011   6.8815   7.6144

          k = 0.1964 0.3402 0.0000 (  4091 PWs)   bands (ev):

   -21.3725 -13.0920 -11.8282  -8.7471   1.4617   3.1154   3.9418   4.7847

          k = 0.1964 0.4158 0.0000 (  4118 PWs)   bands (ev):

   -20.3108 -14.4649 -12.6939  -7.5480  -0.1771   4.6237   5.4204   6.3421

          k = 0.1964 0.4914 0.0000 (  4133 PWs)   bands (ev):

   -19.0765 -16.0205 -13.1255  -6.2936  -1.7211   6.4056   6.9861   8.1194

          k = 0.1964 0.5671 0.0000 (  4129 PWs)   bands (ev):

   -17.9777 -17.2427 -13.2593  -5.5695  -2.5464   7.7028   8.0783   8.3227

          k = 0.2619 0.4536 0.0000 (  4151 PWs)   bands (ev):

   -19.1776 -15.2303 -13.9618  -6.3125  -1.5422   6.2574   6.7288   8.0487

          k = 0.2619 0.5293 0.0000 (  4145 PWs)   bands (ev):

   -17.9263 -16.3920 -14.5267  -5.1176  -2.7915   7.0924   8.1068   9.5723

          k = 0.3274 0.5671 0.0000 (  4137 PWs)   bands (ev):

   -16.8726 -16.8726 -15.3162  -3.9274  -3.9274   6.8560   9.6177   9.6177

     the Fermi energy is    -3.9274 ev

!    total energy              =     -22.77366837 Ry
     estimated scf accuracy    <          1.8E-09 Ry
     smearing contrib. (-TS)   =      -0.00005015 Ry
     internal energy E=F+TS    =     -22.77361822 Ry

     The total energy is F=E-TS. E is the sum of the following terms:
     one-electron contribution =    -415.03732477 Ry
     hartree contribution      =     208.21216728 Ry
     xc contribution           =      -7.16299504 Ry
     ewald contribution        =     191.21453433 Ry

     convergence has been achieved in  27 iterations

     Forces acting on atoms (cartesian axes, Ry/au):

     atom    1 type  1   force =    -0.00000000   -0.00000000    0.00000000
     atom    2 type  1   force =     0.00000000    0.00000000    0.00000000

     Total force =     0.000000     Total SCF correction =     0.000000


     Computing stress (Cartesian axis) and pressure

          total   stress  (Ry/bohr**3)                   (kbar)     P=       31.33
   0.00038171  -0.00000000   0.00000000           56.15       -0.00        0.00
  -0.00000000   0.00038171   0.00000000           -0.00       56.15        0.00
   0.00000000   0.00000000  -0.00012443            0.00        0.00      -18.30

     Energy error            =      1.6E-02
     Gradient error          =      1.7E-26
     Cell gradient error     =      3.8E-04


     number of scf cycles    =   2
     number of bfgs steps    =   1

     enthalpy old            =     -22.7579145550 Ry
     enthalpy new            =     -22.7736683657 Ry

     CASE: enthalpy_new < enthalpy_old

     new trust radius        =       0.1045484210 bohr
     new conv_thr            =            1.0E-10 Ry

     new unit-cell volume =    738.46292 a.u.^3 (   109.42892 Ang^3 )
     density =      0.36451 g/cm^3

CELL_PARAMETERS (alat=  4.42000000)
   1.038124047  -0.000000000   0.000000000
  -0.519062024   0.899041797   0.000000000
   0.000000000   0.000000000   9.162895928

ATOMIC_POSITIONS (crystal)
C             0.3333333333        0.6666666667        0.5000000000
C             0.6666666667        0.3333333333        0.5000000000



     Writing output data file ./work/LiC442.save/
     NEW-OLD atomic charge density approx. for the potential

     negative rho (up, down):  5.433E-05 0.000E+00
     extrapolated charge    8.30429, renormalised to    8.00000

     total cpu time spent up to now is        7.3 secs

     Self-consistent Calculation

     iteration #  1     ecut=    50.00 Ry     beta= 0.70
     Davidson diagonalization with overlap
     c_bands:  1 eigenvalues not converged
     c_bands:  5 eigenvalues not converged
     c_bands:  4 eigenvalues not converged
     c_bands:  1 eigenvalues not converged
     c_bands:  2 eigenvalues not converged
     c_bands:  4 eigenvalues not converged
     c_bands:  4 eigenvalues not converged
     c_bands:  1 eigenvalues not converged
     c_bands:  2 eigenvalues not converged
     c_bands:  4 eigenvalues not converged
     c_bands:  4 eigenvalues not converged
     c_bands:  3 eigenvalues not converged
     c_bands:  3 eigenvalues not converged
     c_bands:  5 eigenvalues not converged
     c_bands:  4 eigenvalues not converged
     ethr =  1.00E-06,  avg # of iterations = 18.6

     total cpu time spent up to now is        8.0 secs

     total energy              =     565.15881330 Ry
     estimated scf accuracy    <     331.58350024 Ry

     iteration #  2     ecut=    50.00 Ry     beta= 0.70
     Davidson diagonalization with overlap
     c_bands:  5 eigenvalues not converged
     c_bands:  3 eigenvalues not converged
     c_bands:  5 eigenvalues not converged
     c_bands:  5 eigenvalues not converged
     c_bands:  1 eigenvalues not converged
     c_bands:  5 eigenvalues not converged
     c_bands:  1 eigenvalues not converged
     c_bands:  1 eigenvalues not converged
     c_bands:  1 eigenvalues not converged
     c_bands:  5 eigenvalues not converged
     c_bands:  2 eigenvalues not converged
     c_bands:  5 eigenvalues not converged
     c_bands:  1 eigenvalues not converged
     c_bands:  5 eigenvalues not converged
     c_bands:  4 eigenvalues not converged
     ethr =  1.00E-02,  avg # of iterations = 32.1

     total cpu time spent up to now is        9.2 secs

     total energy              =    -130.58406981 Ry
     estimated scf accuracy    <     169.43572965 Ry

     iteration #  3     ecut=    50.00 Ry     beta= 0.70
     Davidson diagonalization with overlap
     c_bands:  3 eigenvalues not converged
     ethr =  1.00E-02,  avg # of iterations =  8.3

     total cpu time spent up to now is        9.4 secs

     total energy              =     -55.23256106 Ry
     estimated scf accuracy    <      58.39598292 Ry

     iteration #  4     ecut=    50.00 Ry     beta= 0.70
     Davidson diagonalization with overlap
     ethr =  1.00E-02,  avg # of iterations =  3.1

     total cpu time spent up to now is        9.5 secs

     total energy              =     -43.34648290 Ry
     estimated scf accuracy    <      17.61803640 Ry

     iteration #  5     ecut=    50.00 Ry     beta= 0.70
     Davidson diagonalization with overlap
     ethr =  1.00E-02,  avg # of iterations =  1.4

     total cpu time spent up to now is        9.6 secs

     total energy              =     -25.64759764 Ry
     estimated scf accuracy    <      11.16179578 Ry

     iteration #  6     ecut=    50.00 Ry     beta= 0.70
     Davidson diagonalization with overlap
     ethr =  1.00E-02,  avg # of iterations =  4.0

     total cpu time spent up to now is        9.8 secs

     total energy              =     -34.10420643 Ry
     estimated scf accuracy    <       1.68858446 Ry

     iteration #  7     ecut=    50.00 Ry     beta= 0.70
     Davidson diagonalization with overlap
     ethr =  1.00E-02,  avg # of iterations =  1.3

     total cpu time spent up to now is        9.9 secs

     total energy              =     -34.29369585 Ry
     estimated scf accuracy    <       6.07600027 Ry

     iteration #  8     ecut=    50.00 Ry     beta= 0.70
     Davidson diagonalization with overlap
     ethr =  1.00E-02,  avg # of iterations =  1.0

     total cpu time spent up to now is       10.0 secs

     total energy              =     -32.49940429 Ry
     estimated scf accuracy    <       6.17166156 Ry

     iteration #  9     ecut=    50.00 Ry     beta= 0.70
     Davidson diagonalization with overlap
     ethr =  1.00E-02,  avg # of iterations =  1.0

     total cpu time spent up to now is       10.1 secs

     total energy              =     -34.05447849 Ry
     estimated scf accuracy    <       5.22320282 Ry

     iteration # 10     ecut=    50.00 Ry     beta= 0.70
     Davidson diagonalization with overlap
     ethr =  1.00E-02,  avg # of iterations =  1.0

     negative rho (up, down):  1.717E-04 0.000E+00

     total cpu time spent up to now is       10.2 secs

     total energy              =     -22.74321839 Ry
     estimated scf accuracy    <       6.04870361 Ry

     iteration # 11     ecut=    50.00 Ry     beta= 0.70
     Davidson diagonalization with overlap
     ethr =  1.00E-02,  avg # of iterations =  3.4

     negative rho (up, down):  4.452E-06 0.000E+00

     total cpu time spent up to now is       10.4 secs

     total energy              =     -22.88362434 Ry
     estimated scf accuracy    <       0.19447232 Ry

     iteration # 12     ecut=    50.00 Ry     beta= 0.70
     Davidson diagonalization with overlap
     ethr =  2.43E-03,  avg # of iterations =  2.6

     negative rho (up, down):  7.200E-05 0.000E+00

     total cpu time spent up to now is       10.5 secs

     total energy              =     -22.73182091 Ry
     estimated scf accuracy    <       0.23660988 Ry

     iteration # 13     ecut=    50.00 Ry     beta= 0.70
     Davidson diagonalization with overlap
     ethr =  2.43E-03,  avg # of iterations =  5.8

     negative rho (up, down):  4.323E-04 0.000E+00

     total cpu time spent up to now is       10.7 secs

     total energy              =     -22.87381287 Ry
     estimated scf accuracy    <       0.03452430 Ry

     iteration # 14     ecut=    50.00 Ry     beta= 0.70
     Davidson diagonalization with overlap
     ethr =  4.32E-04,  avg # of iterations =  9.8

     negative rho (up, down):  9.778E-04 0.000E+00

     total cpu time spent up to now is       10.9 secs

     total energy              =     -22.92893428 Ry
     estimated scf accuracy    <       0.30145488 Ry

     iteration # 15     ecut=    50.00 Ry     beta= 0.70
     Davidson diagonalization with overlap
     ethr =  4.32E-04,  avg # of iterations =  1.7

     negative rho (up, down):  9.797E-04 0.000E+00

     total cpu time spent up to now is       11.0 secs

     total energy              =     -22.89961585 Ry
     estimated scf accuracy    <       0.70265466 Ry

     iteration # 16     ecut=    50.00 Ry     beta= 0.70
     Davidson diagonalization with overlap
     ethr =  4.32E-04,  avg # of iterations =  1.0

     negative rho (up, down):  1.048E-02 0.000E+00

     total cpu time spent up to now is       11.2 secs

     total energy              =     -22.82436404 Ry
     estimated scf accuracy    <       0.38510068 Ry

     iteration # 17     ecut=    50.00 Ry     beta= 0.70
     Davidson diagonalization with overlap
     ethr =  4.32E-04,  avg # of iterations =  3.9

     negative rho (up, down):  1.790E-02 0.000E+00

     total cpu time spent up to now is       11.3 secs

     total energy              =     -22.77585173 Ry
     estimated scf accuracy    <       0.19210751 Ry

     iteration # 18     ecut=    50.00 Ry     beta= 0.70
     Davidson diagonalization with overlap
     ethr =  4.32E-04,  avg # of iterations =  2.0

     negative rho (up, down):  1.559E-02 0.000E+00

     total cpu time spent up to now is       11.4 secs

     total energy              =     -22.78234562 Ry
     estimated scf accuracy    <       0.02142921 Ry

     iteration # 19     ecut=    50.00 Ry     beta= 0.70
     Davidson diagonalization with overlap
     ethr =  2.68E-04,  avg # of iterations =  2.9

     negative rho (up, down):  1.049E-02 0.000E+00

     total cpu time spent up to now is       11.6 secs

     total energy              =     -22.77958866 Ry
     estimated scf accuracy    <       0.00634206 Ry

     iteration # 20     ecut=    50.00 Ry     beta= 0.70
     Davidson diagonalization with overlap
     ethr =  7.93E-05,  avg # of iterations =  9.0

     negative rho (up, down):  1.411E-02 0.000E+00

     total cpu time spent up to now is       11.8 secs

     total energy              =     -22.77998085 Ry
     estimated scf accuracy    <       0.00091836 Ry

     iteration # 21     ecut=    50.00 Ry     beta= 0.70
     Davidson diagonalization with overlap
     c_bands:  1 eigenvalues not converged
     ethr =  1.15E-05,  avg # of iterations =  9.0

     negative rho (up, down):  1.237E-02 0.000E+00

     total cpu time spent up to now is       12.1 secs

     total energy              =     -22.77989897 Ry
     estimated scf accuracy    <       0.00043075 Ry

     iteration # 22     ecut=    50.00 Ry     beta= 0.70
     Davidson diagonalization with overlap
     c_bands:  1 eigenvalues not converged
     ethr =  5.38E-06,  avg # of iterations =  7.6

     negative rho (up, down):  1.178E-02 0.000E+00

     total cpu time spent up to now is       12.3 secs

     total energy              =     -22.78009912 Ry
     estimated scf accuracy    <       0.00018517 Ry

     iteration # 23     ecut=    50.00 Ry     beta= 0.70
     Davidson diagonalization with overlap
     c_bands:  1 eigenvalues not converged
     c_bands:  1 eigenvalues not converged
     c_bands:  1 eigenvalues not converged
     ethr =  2.31E-06,  avg # of iterations = 10.2

     negative rho (up, down):  1.268E-02 0.000E+00

     total cpu time spent up to now is       12.5 secs

     total energy              =     -22.78048298 Ry
     estimated scf accuracy    <       0.00038282 Ry

     iteration # 24     ecut=    50.00 Ry     beta= 0.70
     Davidson diagonalization with overlap
     c_bands:  1 eigenvalues not converged
     ethr =  2.31E-06,  avg # of iterations =  9.3

     negative rho (up, down):  1.098E-02 0.000E+00

     total cpu time spent up to now is       12.8 secs

     total energy              =     -22.78013689 Ry
     estimated scf accuracy    <       0.00057990 Ry

     iteration # 25     ecut=    50.00 Ry     beta= 0.70
     Davidson diagonalization with overlap
     c_bands:  1 eigenvalues not converged
     ethr =  2.31E-06,  avg # of iterations =  8.2

     negative rho (up, down):  1.829E-02 0.000E+00

     total cpu time spent up to now is       13.0 secs

     total energy              =     -22.78212976 Ry
     estimated scf accuracy    <       0.00046097 Ry

     iteration # 26     ecut=    50.00 Ry     beta= 0.70
     Davidson diagonalization with overlap
     c_bands:  1 eigenvalues not converged
     ethr =  2.31E-06,  avg # of iterations = 12.6

     negative rho (up, down):  3.074E-03 0.000E+00

     total cpu time spent up to now is       13.3 secs

     total energy              =     -22.77972091 Ry
     estimated scf accuracy    <       0.00137738 Ry

     iteration # 27     ecut=    50.00 Ry     beta= 0.70
     Davidson diagonalization with overlap
     c_bands:  1 eigenvalues not converged
     c_bands:  2 eigenvalues not converged
     c_bands:  1 eigenvalues not converged
     c_bands:  1 eigenvalues not converged
     c_bands:  1 eigenvalues not converged
     c_bands:  1 eigenvalues not converged
     c_bands:  2 eigenvalues not converged
     ethr =  2.31E-06,  avg # of iterations = 14.8

     negative rho (up, down):  1.296E-04 0.000E+00

     total cpu time spent up to now is       13.6 secs

     total energy              =     -22.77970410 Ry
     estimated scf accuracy    <       0.00005475 Ry

     iteration # 28     ecut=    50.00 Ry     beta= 0.70
     Davidson diagonalization with overlap
     c_bands:  1 eigenvalues not converged
     c_bands:  1 eigenvalues not converged
     c_bands:  1 eigenvalues not converged
     ethr =  6.84E-07,  avg # of iterations = 10.2

     negative rho (up, down):  4.094E-05 0.000E+00

     total cpu time spent up to now is       13.9 secs

     total energy              =     -22.77971172 Ry
     estimated scf accuracy    <       0.00000238 Ry

     iteration # 29     ecut=    50.00 Ry     beta= 0.70
     Davidson diagonalization with overlap
     ethr =  2.98E-08,  avg # of iterations =  6.0

     total cpu time spent up to now is       14.0 secs

     total energy              =     -22.77971204 Ry
     estimated scf accuracy    <       0.00000006 Ry

     iteration # 30     ecut=    50.00 Ry     beta= 0.70
     Davidson diagonalization with overlap
     ethr =  6.89E-10,  avg # of iterations =  4.6

     total cpu time spent up to now is       14.2 secs

     total energy              =     -22.77971205 Ry
     estimated scf accuracy    <          4.3E-09 Ry

     iteration # 31     ecut=    50.00 Ry     beta= 0.70
     Davidson diagonalization with overlap
     ethr =  5.38E-11,  avg # of iterations =  2.4

     total cpu time spent up to now is       14.4 secs

     total energy              =     -22.77971205 Ry
     estimated scf accuracy    <          1.2E-10 Ry

     iteration # 32     ecut=    50.00 Ry     beta= 0.70
     Davidson diagonalization with overlap
     ethr =  1.53E-12,  avg # of iterations =  3.4

     total cpu time spent up to now is       14.5 secs

     End of self-consistent calculation

          k = 0.0000 0.0000 0.0000 (  3967 PWs)   bands (ev):

   -24.0390 -12.0557  -7.1234  -7.1234  -0.9911  -0.2084   0.5737   0.9310

          k = 0.0000 0.0742 0.0000 (  4009 PWs)   bands (ev):

   -23.9312 -11.9262  -7.5673  -7.3617  -0.8441  -0.0593   0.7238   1.0805

          k = 0.0000 0.1483 0.0000 (  4043 PWs)   bands (ev):

   -23.6083 -11.5372  -8.7346  -7.9598  -0.4032   0.3879   1.1740   1.5287

          k = 0.0000 0.2225 0.0000 (  4059 PWs)   bands (ev):

   -23.0724 -10.8959 -10.3255  -8.7002   0.3313   1.1309   1.9244   2.2736

          k = 0.0000 0.2966 0.0000 (  4051 PWs)   bands (ev):

   -22.3272 -12.1028 -10.0184  -9.4171   1.3574   2.1440   2.9716   2.9735

          k = 0.0000 0.3708 0.0000 (  4084 PWs)   bands (ev):

   -21.3827 -13.9156 -10.0147  -8.9387   0.9958   2.6676   3.5307   4.0246

          k = 0.0000 0.4449 0.0000 (  4098 PWs)   bands (ev):

   -20.2500 -15.6648 -10.4335  -7.7450  -0.8415   3.7984   4.3194   5.1471

          k = 0.0000 0.5191 0.0000 (  4100 PWs)   bands (ev):

   -18.9944 -17.2382 -10.6496  -6.7407  -2.1861   3.7242   6.1616   7.0394

          k = 0.0642 0.1112 0.0000 (  4031 PWs)   bands (ev):

   -23.7158 -11.6660  -8.3169  -7.8344  -0.5501   0.2390   1.0240   1.3794

          k = 0.0642 0.1854 0.0000 (  4060 PWs)   bands (ev):

   -23.2864 -11.1509  -9.5994  -8.6010   0.0379   0.8344   1.6245   1.9764

          k = 0.0642 0.2595 0.0000 (  4062 PWs)   bands (ev):

   -22.6459 -11.2237 -10.3904  -9.3908   0.9189   1.7221   2.5249   2.8646

          k = 0.0642 0.3337 0.0000 (  4072 PWs)   bands (ev):

   -21.8009 -12.9876 -10.0789  -9.4075   1.8818   2.0895   2.9421   3.7226

          k = 0.0642 0.4078 0.0000 (  4086 PWs)   bands (ev):

   -20.7615 -14.7544 -10.5991  -8.2535   0.0071   3.5369   4.4029   4.4153

          k = 0.0642 0.4820 0.0000 (  4110 PWs)   bands (ev):

   -19.5530 -16.4237 -10.9249  -7.0862  -1.6404   4.2360   5.3070   6.1523

          k = 0.0642 0.5561 0.0000 (  4091 PWs)   bands (ev):

   -18.5193 -17.6127 -11.0316  -6.4669  -2.4250   4.1922   7.2144   7.3685

          k = 0.1284 0.2225 0.0000 (  4071 PWs)   bands (ev):

   -22.7524 -10.7184 -10.5159  -9.6107   0.7730   1.5766   2.3754   2.7212

          k = 0.1284 0.2966 0.0000 (  4086 PWs)   bands (ev):

   -22.0111 -12.1474 -10.5537  -9.6458   1.7997   2.4536   2.6390   3.4260

          k = 0.1284 0.3708 0.0000 (  4107 PWs)   bands (ev):

   -21.0726 -13.7848 -11.2477  -8.5731   0.7156   3.1130   3.9388   4.7740

          k = 0.1284 0.4449 0.0000 (  4107 PWs)   bands (ev):

   -19.9502 -15.4462 -11.7031  -7.3787  -0.9953   4.6997   5.5273   5.6125

          k = 0.1284 0.5191 0.0000 (  4109 PWs)   bands (ev):

   -18.7107 -16.9734 -11.9318  -6.3513  -2.3003   5.4891   6.5768   7.2823

          k = 0.1927 0.3337 0.0000 (  4091 PWs)   bands (ev):

   -21.1759 -13.1691 -11.7805  -8.6810   1.0122   2.9689   3.7767   4.6263

          k = 0.1927 0.4078 0.0000 (  4118 PWs)   bands (ev):

   -20.1524 -14.4912 -12.6229  -7.5418  -0.5373   4.4186   5.1924   6.1232

          k = 0.1927 0.4820 0.0000 (  4133 PWs)   bands (ev):

   -18.9699 -15.9730 -13.0536  -6.3538  -1.9941   6.1275   6.6806   7.3074

          k = 0.1927 0.5561 0.0000 (  4129 PWs)   bands (ev):

   -17.9731 -17.0856 -13.1871  -5.6721  -2.7692   7.2333   7.3552   7.9524

          k = 0.2569 0.4449 0.0000 (  4151 PWs)   bands (ev):

   -19.0637 -15.2696 -13.8094  -6.3693  -1.8369   5.9867   6.4377   7.7639

          k = 0.2569 0.5191 0.0000 (  4145 PWs)   bands (ev):

   -17.8786 -16.3624 -14.3641  -5.2380  -3.0214   6.7963   7.7488   9.2082

          k = 0.3211 0.5561 0.0000 (  4137 PWs)   bands (ev):

   -16.8850 -16.8850 -15.0460  -4.1065  -4.1065   6.5841   9.0866   9.0866

     the Fermi energy is    -4.1065 ev

!    total energy              =     -22.77971205 Ry
     estimated scf accuracy    <          1.7E-12 Ry
     smearing contrib. (-TS)   =      -0.00005015 Ry
     internal energy E=F+TS    =     -22.77966190 Ry

     The total energy is F=E-TS. E is the sum of the following terms:
     one-electron contribution =    -399.02082989 Ry
     hartree contribution      =     200.16093717 Ry
     xc contribution           =      -7.07637397 Ry
     ewald contribution        =     183.15660478 Ry

     convergence has been achieved in  32 iterations

     Forces acting on atoms (cartesian axes, Ry/au):

     atom    1 type  1   force =     0.00000000    0.00000000    0.00000000
     atom    2 type  1   force =     0.00000000    0.00000000    0.00000000

     Total force =     0.000000     Total SCF correction =     0.000000


     Computing stress (Cartesian axis) and pressure

          total   stress  (Ry/bohr**3)                   (kbar)     P=       -0.48
   0.00005809   0.00000000   0.00000000            8.55        0.00        0.00
   0.00000000   0.00005809  -0.00000000            0.00        8.55       -0.00
   0.00000000   0.00000000  -0.00012591            0.00        0.00      -18.52

     Energy error            =      6.0E-03
     Gradient error          =      0.0E+00
     Cell gradient error     =      5.8E-05


     number of scf cycles    =   3
     number of bfgs steps    =   2

     enthalpy old            =     -22.7736683657 Ry
     enthalpy new            =     -22.7797120528 Ry

     CASE: enthalpy_new < enthalpy_old

     new trust radius        =       0.0192012930 bohr
     new conv_thr            =            1.0E-10 Ry

     new unit-cell volume =    743.69003 a.u.^3 (   110.20349 Ang^3 )
     density =      0.36195 g/cm^3

CELL_PARAMETERS (alat=  4.42000000)
   1.041791676  -0.000000000   0.000000000
  -0.520895838   0.902218057   0.000000000
   0.000000000   0.000000000   9.162895928

ATOMIC_POSITIONS (crystal)
C             0.3333333333        0.6666666667        0.5000000000
C             0.6666666667        0.3333333333        0.5000000000



     Writing output data file ./work/LiC442.save/
     NEW-OLD atomic charge density approx. for the potential

     negative rho (up, down):  4.123E-06 0.000E+00
     extrapolated charge    8.05613, renormalised to    8.00000

     total cpu time spent up to now is       14.6 secs

     Self-consistent Calculation

     iteration #  1     ecut=    50.00 Ry     beta= 0.70
     Davidson diagonalization with overlap
     c_bands:  1 eigenvalues not converged
     c_bands:  1 eigenvalues not converged
     c_bands:  1 eigenvalues not converged
     c_bands:  1 eigenvalues not converged
     c_bands:  1 eigenvalues not converged
     c_bands:  1 eigenvalues not converged
     ethr =  1.00E-06,  avg # of iterations = 15.1

     total cpu time spent up to now is       14.9 secs

     total energy              =     -22.53600090 Ry
     estimated scf accuracy    <       0.11919947 Ry

     iteration #  2     ecut=    50.00 Ry     beta= 0.70
     Davidson diagonalization with overlap
     ethr =  1.49E-03,  avg # of iterations =  8.4

     total cpu time spent up to now is       15.2 secs

     total energy              =     -22.81208002 Ry
     estimated scf accuracy    <       0.07190409 Ry

     iteration #  3     ecut=    50.00 Ry     beta= 0.70
     Davidson diagonalization with overlap
     ethr =  8.99E-04,  avg # of iterations =  2.6

     total cpu time spent up to now is       15.3 secs

     total energy              =     -22.79495604 Ry
     estimated scf accuracy    <       0.02197143 Ry

     iteration #  4     ecut=    50.00 Ry     beta= 0.70
     Davidson diagonalization with overlap
     ethr =  2.75E-04,  avg # of iterations =  3.4

     total cpu time spent up to now is       15.4 secs

     total energy              =     -22.78526983 Ry
     estimated scf accuracy    <       0.01003506 Ry

     iteration #  5     ecut=    50.00 Ry     beta= 0.70
     Davidson diagonalization with overlap
     ethr =  1.25E-04,  avg # of iterations =  3.9

     total cpu time spent up to now is       15.6 secs

     total energy              =     -22.78368311 Ry
     estimated scf accuracy    <       0.00377361 Ry

     iteration #  6     ecut=    50.00 Ry     beta= 0.70
     Davidson diagonalization with overlap
     ethr =  4.72E-05,  avg # of iterations =  3.7

     total cpu time spent up to now is       15.7 secs

     total energy              =     -22.77985225 Ry
     estimated scf accuracy    <       0.00267799 Ry

     iteration #  7     ecut=    50.00 Ry     beta= 0.70
     Davidson diagonalization with overlap
     ethr =  3.35E-05,  avg # of iterations =  8.2

     total cpu time spent up to now is       15.9 secs

     total energy              =     -22.78006261 Ry
     estimated scf accuracy    <       0.00008866 Ry

     iteration #  8     ecut=    50.00 Ry     beta= 0.70
     Davidson diagonalization with overlap
     ethr =  1.11E-06,  avg # of iterations =  5.4

     total cpu time spent up to now is       16.1 secs

     total energy              =     -22.77988561 Ry
     estimated scf accuracy    <       0.00018467 Ry

     iteration #  9     ecut=    50.00 Ry     beta= 0.70
     Davidson diagonalization with overlap
     ethr =  1.11E-06,  avg # of iterations =  7.0

     total cpu time spent up to now is       16.3 secs

     total energy              =     -22.77987107 Ry
     estimated scf accuracy    <       0.00003132 Ry

     iteration # 10     ecut=    50.00 Ry     beta= 0.70
     Davidson diagonalization with overlap
     ethr =  3.91E-07,  avg # of iterations =  2.3

     total cpu time spent up to now is       16.4 secs

     total energy              =     -22.77987454 Ry
     estimated scf accuracy    <       0.00000116 Ry

     iteration # 11     ecut=    50.00 Ry     beta= 0.70
     Davidson diagonalization with overlap
     ethr =  1.45E-08,  avg # of iterations =  4.5

     total cpu time spent up to now is       16.6 secs

     total energy              =     -22.77987463 Ry
     estimated scf accuracy    <       0.00000004 Ry

     iteration # 12     ecut=    50.00 Ry     beta= 0.70
     Davidson diagonalization with overlap
     ethr =  4.75E-10,  avg # of iterations =  2.6

     total cpu time spent up to now is       16.7 secs

     total energy              =     -22.77987464 Ry
     estimated scf accuracy    <       0.00000003 Ry

     iteration # 13     ecut=    50.00 Ry     beta= 0.70
     Davidson diagonalization with overlap
     ethr =  3.33E-10,  avg # of iterations =  1.0

     total cpu time spent up to now is       16.8 secs

     total energy              =     -22.77987463 Ry
     estimated scf accuracy    <       0.00000003 Ry

     iteration # 14     ecut=    50.00 Ry     beta= 0.70
     Davidson diagonalization with overlap
     ethr =  3.30E-10,  avg # of iterations =  1.0

     total cpu time spent up to now is       16.9 secs

     total energy              =     -22.77987463 Ry
     estimated scf accuracy    <          7.6E-09 Ry

     iteration # 15     ecut=    50.00 Ry     beta= 0.70
     Davidson diagonalization with overlap
     ethr =  9.47E-11,  avg # of iterations =  1.0

     total cpu time spent up to now is       17.0 secs

     total energy              =     -22.77987463 Ry
     estimated scf accuracy    <          8.2E-09 Ry

     iteration # 16     ecut=    50.00 Ry     beta= 0.70
     Davidson diagonalization with overlap
     ethr =  9.47E-11,  avg # of iterations =  1.0

     total cpu time spent up to now is       17.1 secs

     total energy              =     -22.77987463 Ry
     estimated scf accuracy    <          2.6E-09 Ry

     iteration # 17     ecut=    50.00 Ry     beta= 0.70
     Davidson diagonalization with overlap
     ethr =  3.29E-11,  avg # of iterations =  2.0

     total cpu time spent up to now is       17.2 secs

     total energy              =     -22.77987463 Ry
     estimated scf accuracy    <          2.2E-10 Ry

     iteration # 18     ecut=    50.00 Ry     beta= 0.70
     Davidson diagonalization with overlap
     ethr =  2.70E-12,  avg # of iterations =  1.2

     total cpu time spent up to now is       17.3 secs

     total energy              =     -22.77987463 Ry
     estimated scf accuracy    <          1.4E-10 Ry

     iteration # 19     ecut=    50.00 Ry     beta= 0.70
     Davidson diagonalization with overlap
     ethr =  1.73E-12,  avg # of iterations =  1.0

     total cpu time spent up to now is       17.5 secs

     End of self-consistent calculation

          k = 0.0000 0.0000 0.0000 (  3967 PWs)   bands (ev):

   -23.9857 -12.0142  -7.1570  -7.1570  -0.9893  -0.2087   0.5724   0.9295

          k = 0.0000 0.0739 0.0000 (  4009 PWs)   bands (ev):

   -23.8785 -11.8858  -7.5996  -7.3928  -0.8433  -0.0606   0.7214   1.0779

          k = 0.0000 0.1478 0.0000 (  4043 PWs)   bands (ev):

   -23.5576 -11.5001  -8.7623  -7.9849  -0.4055   0.3833   1.1686   1.5229

          k = 0.0000 0.2217 0.0000 (  4059 PWs)   bands (ev):

   -23.0249 -10.8644 -10.3457  -8.7181   0.3239   1.1209   1.9136   2.2624

          k = 0.0000 0.2956 0.0000 (  4051 PWs)   bands (ev):

   -22.2842 -12.1135  -9.9946  -9.4283   1.3429   2.1241   2.8854   2.9551

          k = 0.0000 0.3695 0.0000 (  4084 PWs)   bands (ev):

   -21.3458 -13.9159 -10.0205  -8.9246   0.9219   2.6434   3.5026   3.8962

          k = 0.0000 0.4434 0.0000 (  4098 PWs)   bands (ev):

   -20.2210 -15.6539 -10.4356  -7.7424  -0.8956   3.6685   4.2764   5.1074

          k = 0.0000 0.5172 0.0000 (  4100 PWs)   bands (ev):

   -18.9789 -17.2122 -10.6498  -6.7489  -2.2248   3.5852   6.1123   6.9851

          k = 0.0640 0.1108 0.0000 (  4031 PWs)   bands (ev):

   -23.6644 -11.6278  -8.3468  -7.8606  -0.5514   0.2355   1.0195   1.3747

          k = 0.0640 0.1847 0.0000 (  4060 PWs)   bands (ev):

   -23.2376 -11.1172  -9.6240  -8.6200   0.0326   0.8266   1.6158   1.9674

          k = 0.0640 0.2586 0.0000 (  4062 PWs)   bands (ev):

   -22.6010 -11.2400 -10.3632  -9.4029   0.9075   1.7078   2.5099   2.8484

          k = 0.0640 0.3325 0.0000 (  4072 PWs)   bands (ev):

   -21.7612 -12.9939 -10.0854  -9.3891   1.7984   2.0699   2.9170   3.6985

          k = 0.0640 0.4064 0.0000 (  4086 PWs)   bands (ev):

   -20.7287 -14.7499 -10.6012  -8.2458  -0.0572   3.5054   4.2798   4.3686

          k = 0.0640 0.4803 0.0000 (  4110 PWs)   bands (ev):

   -19.5298 -16.4071 -10.9245  -7.0903  -1.6864   4.0973   5.2627   6.1047

          k = 0.0640 0.5542 0.0000 (  4091 PWs)   bands (ev):

   -18.5156 -17.5758 -11.0302  -6.4780  -2.4616   4.0511   7.1565   7.3115

          k = 0.1280 0.2217 0.0000 (  4071 PWs)   bands (ev):

   -22.7069 -10.7398 -10.4877  -9.6201   0.7626   1.5635   2.3614   2.7068

          k = 0.1280 0.2956 0.0000 (  4086 PWs)   bands (ev):

   -21.9700 -12.1615 -10.5558  -9.6252   1.7820   2.3679   2.6097   3.4046

          k = 0.1280 0.3695 0.0000 (  4107 PWs)   bands (ev):

   -21.0376 -13.7884 -11.2458  -8.5622   0.6410   3.0860   3.9080   4.7426

          k = 0.1280 0.4434 0.0000 (  4107 PWs)   bands (ev):

   -19.9231 -15.4383 -11.6986  -7.3793  -1.0511   4.6603   5.4698   5.4843

          k = 0.1280 0.5172 0.0000 (  4109 PWs)   bands (ev):

   -18.6967 -16.9505 -11.9260  -6.3628  -2.3413   5.3437   6.5238   7.2232

          k = 0.1920 0.3325 0.0000 (  4091 PWs)   bands (ev):

   -21.1402 -13.1818 -11.7707  -8.6691   0.9326   2.9430   3.7472   4.5964

          k = 0.1920 0.4064 0.0000 (  4118 PWs)   bands (ev):

   -20.1236 -14.4952 -12.6086  -7.5405  -0.6010   4.3823   5.1518   6.0825

          k = 0.1920 0.4803 0.0000 (  4133 PWs)   bands (ev):

   -18.9506 -15.9639 -13.0389  -6.3642  -2.0424   6.0779   6.6265   7.1570

          k = 0.1920 0.5542 0.0000 (  4129 PWs)   bands (ev):

   -17.9710 -17.0580 -13.1724  -5.6900  -2.8087   7.0813   7.8864   8.1037

          k = 0.2560 0.4434 0.0000 (  4151 PWs)   bands (ev):

   -19.0430 -15.2755 -13.7809  -6.3792  -1.8889   5.9387   6.3859   7.6685

          k = 0.2560 0.5172 0.0000 (  4145 PWs)   bands (ev):

   -17.8697 -16.3568 -14.3328  -5.2591  -3.0620   6.7440   7.6846   8.8242

          k = 0.3200 0.5542 0.0000 (  4137 PWs)   bands (ev):

   -16.8860 -16.8860 -14.9974  -4.1381  -4.1381   6.5360   8.9883   8.9883

     the Fermi energy is    -4.1381 ev

!    total energy              =     -22.77987463 Ry
     estimated scf accuracy    <          2.3E-11 Ry
     smearing contrib. (-TS)   =      -0.00005015 Ry
     internal energy E=F+TS    =     -22.77982448 Ry

     The total energy is F=E-TS. E is the sum of the following terms:
     one-electron contribution =    -396.18092338 Ry
     hartree contribution      =     198.73352589 Ry
     xc contribution           =      -7.06088192 Ry
     ewald contribution        =     181.72845492 Ry

     convergence has been achieved in  19 iterations

     Forces acting on atoms (cartesian axes, Ry/au):

     atom    1 type  1   force =     0.00000000    0.00000000    0.00000000
     atom    2 type  1   force =     0.00000000    0.00000000    0.00000000

     Total force =     0.000000     Total SCF correction =     0.000000


     Computing stress (Cartesian axis) and pressure

          total   stress  (Ry/bohr**3)                   (kbar)     P=       -5.75
   0.00000443  -0.00000000  -0.00000000            0.65       -0.00       -0.00
  -0.00000000   0.00000443  -0.00000000           -0.00        0.65       -0.00
  -0.00000000  -0.00000000  -0.00012616           -0.00       -0.00      -18.56

     Energy error            =      1.6E-04
     Gradient error          =      0.0E+00
     Cell gradient error     =      4.4E-06


     number of scf cycles    =   4
     number of bfgs steps    =   3

     enthalpy old            =     -22.7797120528 Ry
     enthalpy new            =     -22.7798746325 Ry

     CASE: enthalpy_new < enthalpy_old

     new trust radius        =       0.0015914195 bohr
     new conv_thr            =            1.0E-10 Ry

     new unit-cell volume =    744.12409 a.u.^3 (   110.26781 Ang^3 )
     density =      0.36174 g/cm^3

CELL_PARAMETERS (alat=  4.42000000)
   1.042095652  -0.000000000   0.000000000
  -0.521047826   0.902481308   0.000000000
   0.000000000   0.000000000   9.162895928

ATOMIC_POSITIONS (crystal)
C             0.3333333333        0.6666666667        0.5000000000
C             0.6666666667        0.3333333333        0.5000000000



     Writing output data file ./work/LiC442.save/
     NEW-OLD atomic charge density approx. for the potential
     extrapolated charge    8.00466, renormalised to    8.00000

     total cpu time spent up to now is       17.5 secs

     Self-consistent Calculation

     iteration #  1     ecut=    50.00 Ry     beta= 0.70
     Davidson diagonalization with overlap
     ethr =  1.00E-06,  avg # of iterations =  6.2

     Threshold (ethr) on eigenvalues was too large:
     Diagonalizing with lowered threshold

     Davidson diagonalization with overlap
     ethr =  8.17E-08,  avg # of iterations =  1.0

     total cpu time spent up to now is       17.8 secs

     total energy              =     -22.77986244 Ry
     estimated scf accuracy    <       0.00000677 Ry

     iteration #  2     ecut=    50.00 Ry     beta= 0.70
     Davidson diagonalization with overlap
     ethr =  8.46E-08,  avg # of iterations =  5.7

     total cpu time spent up to now is       18.0 secs

     total energy              =     -22.77987603 Ry
     estimated scf accuracy    <       0.00000632 Ry

     iteration #  3     ecut=    50.00 Ry     beta= 0.70
     Davidson diagonalization with overlap
     ethr =  7.90E-08,  avg # of iterations =  1.0

     total cpu time spent up to now is       18.1 secs

     total energy              =     -22.77987562 Ry
     estimated scf accuracy    <       0.00000146 Ry

     iteration #  4     ecut=    50.00 Ry     beta= 0.70
     Davidson diagonalization with overlap
     ethr =  1.83E-08,  avg # of iterations =  1.9

     total cpu time spent up to now is       18.2 secs

     total energy              =     -22.77987572 Ry
     estimated scf accuracy    <       0.00000024 Ry

     iteration #  5     ecut=    50.00 Ry     beta= 0.70
     Davidson diagonalization with overlap
     ethr =  3.00E-09,  avg # of iterations =  1.0

     total cpu time spent up to now is       18.3 secs

     total energy              =     -22.77987571 Ry
     estimated scf accuracy    <       0.00000024 Ry

     iteration #  6     ecut=    50.00 Ry     beta= 0.70
     Davidson diagonalization with overlap
     ethr =  3.00E-09,  avg # of iterations =  1.0

     total cpu time spent up to now is       18.4 secs

     total energy              =     -22.77987557 Ry
     estimated scf accuracy    <       0.00000021 Ry

     iteration #  7     ecut=    50.00 Ry     beta= 0.70
     Davidson diagonalization with overlap
     ethr =  2.63E-09,  avg # of iterations =  2.0

     total cpu time spent up to now is       18.6 secs

     total energy              =     -22.77987561 Ry
     estimated scf accuracy    <          2.4E-09 Ry

     iteration #  8     ecut=    50.00 Ry     beta= 0.70
     Davidson diagonalization with overlap
     ethr =  2.99E-11,  avg # of iterations =  2.1

     total cpu time spent up to now is       18.7 secs

     total energy              =     -22.77987561 Ry
     estimated scf accuracy    <          1.8E-10 Ry

     iteration #  9     ecut=    50.00 Ry     beta= 0.70
     Davidson diagonalization with overlap
     ethr =  2.29E-12,  avg # of iterations =  2.4

     total cpu time spent up to now is       18.8 secs

     End of self-consistent calculation

          k = 0.0000 0.0000 0.0000 (  3967 PWs)   bands (ev):

   -23.9815 -12.0109  -7.1599  -7.1599  -0.9892  -0.2087   0.5724   0.9295

          k = 0.0000 0.0739 0.0000 (  4009 PWs)   bands (ev):

   -23.8743 -11.8826  -7.6024  -7.3955  -0.8433  -0.0607   0.7214   1.0778

          k = 0.0000 0.1477 0.0000 (  4043 PWs)   bands (ev):

   -23.5536 -11.4972  -8.7648  -7.9872  -0.4057   0.3829   1.1682   1.5225

          k = 0.0000 0.2216 0.0000 (  4059 PWs)   bands (ev):

   -23.0211 -10.8619 -10.3475  -8.7197   0.3233   1.1201   1.9129   2.2616

          k = 0.0000 0.2955 0.0000 (  4051 PWs)   bands (ev):

   -22.2808 -12.1145  -9.9927  -9.4293   1.3416   2.1224   2.8781   2.9537

          k = 0.0000 0.3694 0.0000 (  4084 PWs)   bands (ev):

   -21.3429 -13.9161 -10.0211  -8.9236   0.9157   2.6414   3.5002   3.8853

          k = 0.0000 0.4432 0.0000 (  4098 PWs)   bands (ev):

   -20.2188 -15.6531 -10.4359  -7.7423  -0.9001   3.6576   4.2729   5.1041

          k = 0.0000 0.5171 0.0000 (  4100 PWs)   bands (ev):

   -18.9778 -17.2102 -10.6499  -6.7497  -2.2281   3.5737   6.1082   6.9805

          k = 0.0640 0.1108 0.0000 (  4031 PWs)   bands (ev):

   -23.6603 -11.6248  -8.3495  -7.8629  -0.5515   0.2352   1.0193   1.3744

          k = 0.0640 0.1847 0.0000 (  4060 PWs)   bands (ev):

   -23.2337 -11.1145  -9.6262  -8.6218   0.0322   0.8259   1.6152   1.9667

          k = 0.0640 0.2585 0.0000 (  4062 PWs)   bands (ev):

   -22.5974 -11.2415 -10.3611  -9.4041   0.9065   1.7065   2.5088   2.8473

          k = 0.0640 0.3324 0.0000 (  4072 PWs)   bands (ev):

   -21.7580 -12.9946 -10.0861  -9.3877   1.7914   2.0682   2.9149   3.6966

          k = 0.0640 0.4063 0.0000 (  4086 PWs)   bands (ev):

   -20.7262 -14.7497 -10.6016  -8.2453  -0.0626   3.5027   4.2685   4.3658

          k = 0.0640 0.4802 0.0000 (  4110 PWs)   bands (ev):

   -19.5281 -16.4058 -10.9246  -7.0907  -1.6903   4.0857   5.2590   6.1007

          k = 0.0640 0.5540 0.0000 (  4091 PWs)   bands (ev):

   -18.5154 -17.5729 -11.0302  -6.4790  -2.4648   4.0393   7.1517   7.3067

          k = 0.1279 0.2216 0.0000 (  4071 PWs)   bands (ev):

   -22.7032 -10.7417 -10.4855  -9.6210   0.7617   1.5624   2.3604   2.7057

          k = 0.1279 0.2955 0.0000 (  4086 PWs)   bands (ev):

   -21.9668 -12.1628 -10.5562  -9.6236   1.7805   2.3605   2.6075   3.4030

          k = 0.1279 0.3694 0.0000 (  4107 PWs)   bands (ev):

   -21.0349 -13.7888 -11.2458  -8.5615   0.6347   3.0838   3.9054   4.7402

          k = 0.1279 0.4432 0.0000 (  4107 PWs)   bands (ev):

   -19.9211 -15.4378 -11.6984  -7.3795  -1.0559   4.6570   5.4579   5.4807

          k = 0.1279 0.5171 0.0000 (  4109 PWs)   bands (ev):

   -18.6957 -16.9488 -11.9257  -6.3639  -2.3448   5.3315   6.5194   7.2183

          k = 0.1919 0.3324 0.0000 (  4091 PWs)   bands (ev):

   -21.1374 -13.1830 -11.7701  -8.6683   0.9259   2.9408   3.7448   4.5941

          k = 0.1919 0.4063 0.0000 (  4118 PWs)   bands (ev):

   -20.1214 -14.4957 -12.6076  -7.5405  -0.6064   4.3793   5.1485   6.0793

          k = 0.1919 0.4802 0.0000 (  4133 PWs)   bands (ev):

   -18.9492 -15.9633 -13.0379  -6.3652  -2.0465   6.0738   6.6220   7.1445

          k = 0.1919 0.5540 0.0000 (  4129 PWs)   bands (ev):

   -17.9709 -17.0559 -13.1713  -5.6916  -2.8120   7.0686   7.8805   8.0983

          k = 0.2559 0.4432 0.0000 (  4151 PWs)   bands (ev):

   -19.0414 -15.2761 -13.7787  -6.3801  -1.8933   5.9347   6.3816   7.6641

          k = 0.2559 0.5171 0.0000 (  4145 PWs)   bands (ev):

   -17.8691 -16.3565 -14.3304  -5.2610  -3.0655   6.7397   7.6793   8.8118

          k = 0.3199 0.5540 0.0000 (  4137 PWs)   bands (ev):

   -16.8862 -16.8862 -14.9935  -4.1408  -4.1408   6.5320   8.9800   8.9800

     the Fermi energy is    -4.1408 ev

!    total energy              =     -22.77987561 Ry
     estimated scf accuracy    <          6.7E-11 Ry
     smearing contrib. (-TS)   =      -0.00005015 Ry
     internal energy E=F+TS    =     -22.77982546 Ry

     The total energy is F=E-TS. E is the sum of the following terms:
     one-electron contribution =    -395.94696686 Ry
     hartree contribution      =     198.61596326 Ry
     xc contribution           =      -7.05960898 Ry
     ewald contribution        =     181.61078712 Ry

     convergence has been achieved in   9 iterations

     Forces acting on atoms (cartesian axes, Ry/au):

     atom    1 type  1   force =     0.00000000    0.00000000    0.00000000
     atom    2 type  1   force =    -0.00000000   -0.00000000    0.00000000

     Total force =     0.000000     Total SCF correction =     0.000000


     Computing stress (Cartesian axis) and pressure

          total   stress  (Ry/bohr**3)                   (kbar)     P=       -6.18
   0.00000006  -0.00000000  -0.00000000            0.01       -0.00       -0.00
  -0.00000000   0.00000006  -0.00000000           -0.00        0.01       -0.00
   0.00000000  -0.00000000  -0.00012613            0.00       -0.00      -18.55

     Energy error            =      9.7E-07
     Gradient error          =      1.7E-26
     Cell gradient error     =      5.6E-08


     number of scf cycles    =   5
     number of bfgs steps    =   4

     enthalpy old            =     -22.7798746325 Ry
     enthalpy new            =     -22.7798756065 Ry

     CASE: enthalpy_new < enthalpy_old

     small trust_radius: resetting bfgs history

     new trust radius        =       0.0000076869 bohr
     new conv_thr            =            1.0E-10 Ry

     new unit-cell volume =    744.12618 a.u.^3 (   110.26812 Ang^3 )
     density =      0.36174 g/cm^3

CELL_PARAMETERS (alat=  4.42000000)
   1.042097121  -0.000000000   0.000000000
  -0.521048560   0.902482580   0.000000000
   0.000000000   0.000000000   9.162895928

ATOMIC_POSITIONS (crystal)
C             0.3333333333        0.6666666667        0.5000000000
C             0.6666666667        0.3333333333        0.5000000000



     Writing output data file ./work/LiC442.save/
     NEW-OLD atomic charge density approx. for the potential
     extrapolated charge    8.00002, renormalised to    8.00000

     total cpu time spent up to now is       18.9 secs

     Self-consistent Calculation

     iteration #  1     ecut=    50.00 Ry     beta= 0.70
     Davidson diagonalization with overlap
     ethr =  1.00E-06,  avg # of iterations =  1.0

     Threshold (ethr) on eigenvalues was too large:
     Diagonalizing with lowered threshold

     Davidson diagonalization with overlap
     ethr =  3.17E-12,  avg # of iterations =  1.8

     total cpu time spent up to now is       19.1 secs

     total energy              =     -22.77987561 Ry
     estimated scf accuracy    <          2.8E-10 Ry

     iteration #  2     ecut=    50.00 Ry     beta= 0.70
     Davidson diagonalization with overlap
     ethr =  3.50E-12,  avg # of iterations =  2.1

     total cpu time spent up to now is       19.2 secs

     total energy              =     -22.77987561 Ry
     estimated scf accuracy    <          1.4E-10 Ry

     iteration #  3     ecut=    50.00 Ry     beta= 0.70
     Davidson diagonalization with overlap
     ethr =  1.79E-12,  avg # of iterations =  1.0

     total cpu time spent up to now is       19.3 secs

     End of self-consistent calculation

          k = 0.0000 0.0000 0.0000 (  3967 PWs)   bands (ev):

   -23.9814 -12.0109  -7.1598  -7.1598  -0.9891  -0.2087   0.5724   0.9295

          k = 0.0000 0.0739 0.0000 (  4009 PWs)   bands (ev):

   -23.8742 -11.8826  -7.6024  -7.3955  -0.8433  -0.0607   0.7214   1.0778

          k = 0.0000 0.1477 0.0000 (  4043 PWs)   bands (ev):

   -23.5535 -11.4971  -8.7647  -7.9871  -0.4057   0.3830   1.1682   1.5225

          k = 0.0000 0.2216 0.0000 (  4059 PWs)   bands (ev):

   -23.0211 -10.8618 -10.3474  -8.7197   0.3233   1.1201   1.9128   2.2616

          k = 0.0000 0.2955 0.0000 (  4051 PWs)   bands (ev):

   -22.2808 -12.1145  -9.9927  -9.4293   1.3417   2.1224   2.8781   2.9537

          k = 0.0000 0.3694 0.0000 (  4084 PWs)   bands (ev):

   -21.3428 -13.9160 -10.0211  -8.9235   0.9157   2.6414   3.5002   3.8853

          k = 0.0000 0.4432 0.0000 (  4098 PWs)   bands (ev):

   -20.2187 -15.6531 -10.4358  -7.7423  -0.9001   3.6576   4.2729   5.1041

          k = 0.0000 0.5171 0.0000 (  4100 PWs)   bands (ev):

   -18.9777 -17.2102 -10.6499  -6.7496  -2.2280   3.5736   6.1082   6.9805

          k = 0.0640 0.1108 0.0000 (  4031 PWs)   bands (ev):

   -23.6602 -11.6247  -8.3494  -7.8629  -0.5515   0.2352   1.0193   1.3744

          k = 0.0640 0.1847 0.0000 (  4060 PWs)   bands (ev):

   -23.2336 -11.1145  -9.6262  -8.6217   0.0322   0.8259   1.6152   1.9667

          k = 0.0640 0.2585 0.0000 (  4062 PWs)   bands (ev):

   -22.5974 -11.2415 -10.3611  -9.4040   0.9065   1.7066   2.5088   2.8473

          k = 0.0640 0.3324 0.0000 (  4072 PWs)   bands (ev):

   -21.7580 -12.9945 -10.0860  -9.3876   1.7914   2.0682   2.9149   3.6966

          k = 0.0640 0.4063 0.0000 (  4086 PWs)   bands (ev):

   -20.7261 -14.7497 -10.6015  -8.2452  -0.0626   3.5027   4.2685   4.3658

          k = 0.0640 0.4802 0.0000 (  4110 PWs)   bands (ev):

   -19.5280 -16.4058 -10.9246  -7.0907  -1.6903   4.0857   5.2590   6.1007

          k = 0.0640 0.5540 0.0000 (  4091 PWs)   bands (ev):

   -18.5153 -17.5729 -11.0302  -6.4790  -2.4648   4.0393   7.1517   7.3067

          k = 0.1279 0.2216 0.0000 (  4071 PWs)   bands (ev):

   -22.7032 -10.7417 -10.4854  -9.6210   0.7617   1.5624   2.3604   2.7057

          k = 0.1279 0.2955 0.0000 (  4086 PWs)   bands (ev):

   -21.9667 -12.1628 -10.5561  -9.6236   1.7806   2.3605   2.6075   3.4030

          k = 0.1279 0.3694 0.0000 (  4107 PWs)   bands (ev):

   -21.0348 -13.7888 -11.2458  -8.5614   0.6348   3.0838   3.9054   4.7401

          k = 0.1279 0.4432 0.0000 (  4107 PWs)   bands (ev):

   -19.9210 -15.4377 -11.6983  -7.3795  -1.0559   4.6570   5.4579   5.4807

          k = 0.1279 0.5171 0.0000 (  4109 PWs)   bands (ev):

   -18.6957 -16.9487 -11.9256  -6.3639  -2.3448   5.3315   6.5194   7.2183

          k = 0.1919 0.3324 0.0000 (  4091 PWs)   bands (ev):

   -21.1373 -13.1830 -11.7700  -8.6682   0.9259   2.9408   3.7448   4.5941

          k = 0.1919 0.4063 0.0000 (  4118 PWs)   bands (ev):

   -20.1213 -14.4956 -12.6075  -7.5405  -0.6064   4.3793   5.1485   6.0793

          k = 0.1919 0.4802 0.0000 (  4133 PWs)   bands (ev):

   -18.9491 -15.9633 -13.0378  -6.3652  -2.0465   6.0738   6.6220   7.1444

          k = 0.1919 0.5540 0.0000 (  4129 PWs)   bands (ev):

   -17.9709 -17.0558 -13.1712  -5.6916  -2.8120   7.0685   7.8803   8.0983

          k = 0.2559 0.4432 0.0000 (  4151 PWs)   bands (ev):

   -19.0414 -15.2761 -13.7786  -6.3801  -1.8933   5.9347   6.3816   7.6640

          k = 0.2559 0.5171 0.0000 (  4145 PWs)   bands (ev):

   -17.8691 -16.3565 -14.3303  -5.2610  -3.0655   6.7397   7.6793   8.8117

          k = 0.3199 0.5540 0.0000 (  4137 PWs)   bands (ev):

   -16.8862 -16.8862 -14.9935  -4.1408  -4.1408   6.5320   8.9800   8.9800

     the Fermi energy is    -4.1408 ev

!    total energy              =     -22.77987561 Ry
     estimated scf accuracy    <          2.6E-11 Ry
     smearing contrib. (-TS)   =      -0.00005015 Ry
     internal energy E=F+TS    =     -22.77982546 Ry

     The total energy is F=E-TS. E is the sum of the following terms:
     one-electron contribution =    -395.94582661 Ry
     hartree contribution      =     198.61538369 Ry
     xc contribution           =      -7.05960156 Ry
     ewald contribution        =     181.61021902 Ry

     convergence has been achieved in   3 iterations

     Forces acting on atoms (cartesian axes, Ry/au):

     atom    1 type  1   force =     0.00000000    0.00000000    0.00000000
     atom    2 type  1   force =     0.00000000    0.00000000    0.00000000

     Total force =     0.000000     Total SCF correction =     0.000000


     Computing stress (Cartesian axis) and pressure

          total   stress  (Ry/bohr**3)                   (kbar)     P=       -6.18
   0.00000004  -0.00000000   0.00000000            0.01       -0.00        0.00
  -0.00000000   0.00000004  -0.00000000           -0.00        0.01       -0.00
  -0.00000000  -0.00000000  -0.00012614           -0.00       -0.00      -18.56

     Energy error            =      1.2E-10
     Gradient error          =      0.0E+00
     Cell gradient error     =      3.6E-08


     number of scf cycles    =   6
     number of bfgs steps    =   5

     enthalpy old            =     -22.7798756065 Ry
     enthalpy new            =     -22.7798756066 Ry

     CASE: enthalpy_new < enthalpy_old

     Message from routine bfgs:
     history already reset at previous step: stopping
     small trust_radius: resetting bfgs history

[...]

          k = 0.1279 0.5171 0.0000 (  4109 PWs)   bands (ev):

   -18.6957 -16.9488 -11.9257  -6.3639  -2.3448   5.3314   6.5194   7.2183

          k = 0.1919 0.3324 0.0000 (  4091 PWs)   bands (ev):

   -21.1374 -13.1830 -11.7701  -8.6682   0.9259   2.9408   3.7448   4.5941

          k = 0.1919 0.4063 0.0000 (  4118 PWs)   bands (ev):

   -20.1214 -14.4957 -12.6075  -7.5405  -0.6065   4.3793   5.1484   6.0793

          k = 0.1919 0.4802 0.0000 (  4133 PWs)   bands (ev):

   -18.9492 -15.9633 -13.0379  -6.3652  -2.0465   6.0738   6.6220   7.1444

          k = 0.1919 0.5540 0.0000 (  4129 PWs)   bands (ev):

   -17.9709 -17.0559 -13.1713  -5.6916  -2.8121   7.0685   7.8800   8.0983

          k = 0.2559 0.4432 0.0000 (  4151 PWs)   bands (ev):

   -19.0414 -15.2761 -13.7787  -6.3801  -1.8934   5.9347   6.3816   7.6640

          k = 0.2559 0.5171 0.0000 (  4145 PWs)   bands (ev):

   -17.8691 -16.3565 -14.3303  -5.2610  -3.0655   6.7396   7.6793   8.8117

          k = 0.3199 0.5540 0.0000 (  4137 PWs)   bands (ev):

   -16.8862 -16.8862 -14.9935  -4.1408  -4.1408   6.5320   8.9799   8.9799

     the Fermi energy is    -4.1408 ev

!    total energy              =     -22.77987561 Ry
     estimated scf accuracy    <          6.0E-11 Ry
     smearing contrib. (-TS)   =      -0.00005015 Ry
     internal energy E=F+TS    =     -22.77982546 Ry

     The total energy is F=E-TS. E is the sum of the following terms:
     one-electron contribution =    -395.94510649 Ry
     hartree contribution      =     198.61502632 Ry
     xc contribution           =      -7.05959837 Ry
     ewald contribution        =     181.60985309 Ry

     convergence has been achieved in   2 iterations

     Forces acting on atoms (cartesian axes, Ry/au):

     atom    1 type  1   force =     0.00000000    0.00000000    0.00000000
     atom    2 type  1   force =    -0.00000000   -0.00000000    0.00000000

     Total force =     0.000000     Total SCF correction =     0.000000


     Computing stress (Cartesian axis) and pressure

          total   stress  (Ry/bohr**3)                   (kbar)     P=       -6.18
   0.00000002  -0.00000000  -0.00000000            0.00       -0.00       -0.00
  -0.00000000   0.00000002  -0.00000000           -0.00        0.00       -0.00
   0.00000000  -0.00000000  -0.00012613            0.00       -0.00      -18.55

     Message from routine bfgs:
     history already reset at previous step: stopping
     Energy error            =      1.1E-11
     Gradient error          =      1.7E-26
     Cell gradient error     =      2.1E-08


     bfgs converged in   7 scf cycles and   6 bfgs steps
     (criteria: energy <  1.0E-04 Ry, force <  1.0E-08Ry/Bohr, cell <  1.0E-03kbar)

     End of BFGS Geometry Optimization

     Final enthalpy =     -22.7798756066 Ry

     File ./work/LiC442.bfgs deleted, as requested
Begin final coordinates
     new unit-cell volume =    744.12753 a.u.^3 (   110.26832 Ang^3 )
     density =      0.36174 g/cm^3

CELL_PARAMETERS (alat=  4.42000000)
   1.042098066  -0.000000000   0.000000000
  -0.521049033   0.902483399   0.000000000
   0.000000000   0.000000000   9.162895928

ATOMIC_POSITIONS (crystal)
C             0.3333333333        0.6666666667        0.5000000000
C             0.6666666667        0.3333333333        0.5000000000
End final coordinates



     Writing output data file ./work/LiC442.save/

     Final scf calculation at the relaxed structure.
     The G-vectors are recalculated for the final unit cell
     Results may differ from those at the preceding step.
 
     Parallelization info
     --------------------
     sticks:   dense  smooth     PW     G-vecs:    dense   smooth      PW
     Min           9       9      2                 1107     1107     170
     Max          10      10      3                 1132     1132     215
     Sum         295     295     91                35637    35637    6361
 


     bravais-lattice index     =            4
     lattice parameter (alat)  =       4.4200  a.u.
     unit-cell volume          =     744.1275 (a.u.)^3
     number of atoms/cell      =            2
     number of atomic types    =            1
     number of electrons       =         8.00
     number of Kohn-Sham states=            8
     kinetic-energy cutoff     =      50.0000  Ry
     charge density cutoff     =     200.0000  Ry
     scf convergence threshold =      1.0E-10
     mixing beta               =       0.7000
     number of iterations used =            8  plain     mixing
     press convergence thresh. =      1.0E-03
     Exchange-correlation= PBE
                           (   1   4   3   4   0   0   0)

     celldm(1)=   4.420000  celldm(2)=   0.000000  celldm(3)=   9.162896
     celldm(4)=   0.000000  celldm(5)=   0.000000  celldm(6)=   0.000000

     crystal axes: (cart. coord. in units of alat)
               a(1) = (   1.042098  -0.000000   0.000000 )  
               a(2) = (  -0.521049   0.902483   0.000000 )  
               a(3) = (   0.000000   0.000000   9.162896 )  

     reciprocal axes: (cart. coord. in units 2 pi/alat)
               b(1) = (  0.959603  0.554027  0.000000 )  
               b(2) = (  0.000000  1.108054  0.000000 )  
               b(3) = (  0.000000  0.000000  0.109136 )  


     PseudoPot. # 1 for C  read from file:
     /home/yhkim/qe-6.7/pseudo/ONCV1/1.2/C_ONCV_PBE-1.2.upf
     MD5 check sum: 1a5f83a7b1f58d24996abe00ed223ac6
     Pseudo is Norm-conserving, Zval =  4.0
     Generated using ONCVPSP code by D. R. Hamann
     Using radial grid of  602 points,  4 beta functions with: 
                l(1) =   0
                l(2) =   0
                l(3) =   1
                l(4) =   1

     atomic species   valence    mass     pseudopotential
        C              4.00    12.01070     C ( 1.00)

     24 Sym. Ops., with inversion, found



   Cartesian axes

     site n.     atom                  positions (alat units)
         1           C   tau(   1) = (  -0.0000000   0.6016556   4.5814480  )
         2           C   tau(   2) = (   0.5210490   0.3008278   4.5814480  )

     number of k points=    27  Methfessel-Paxton smearing, width (Ry)=  0.0100
                       cart. coord. in units 2pi/alat
        k(    1) = (   0.0000000   0.0000000   0.0000000), wk =   0.0088889
        k(    2) = (   0.0000000   0.0738702   0.0000000), wk =   0.0533333
        k(    3) = (   0.0000000   0.1477405   0.0000000), wk =   0.0533333
        k(    4) = (   0.0000000   0.2216107   0.0000000), wk =   0.0533333
        k(    5) = (   0.0000000   0.2954810   0.0000000), wk =   0.0533333
        k(    6) = (   0.0000000   0.3693512   0.0000000), wk =   0.0533333
        k(    7) = (   0.0000000   0.4432214   0.0000000), wk =   0.0533333
        k(    8) = (   0.0000000   0.5170917   0.0000000), wk =   0.0533333
        k(    9) = (   0.0639735   0.1108054   0.0000000), wk =   0.0533333
        k(   10) = (   0.0639735   0.1846756   0.0000000), wk =   0.1066667
        k(   11) = (   0.0639735   0.2585458   0.0000000), wk =   0.1066667
        k(   12) = (   0.0639735   0.3324161   0.0000000), wk =   0.1066667
        k(   13) = (   0.0639735   0.4062863   0.0000000), wk =   0.1066667
        k(   14) = (   0.0639735   0.4801566   0.0000000), wk =   0.1066667
        k(   15) = (   0.0639735   0.5540268   0.0000000), wk =   0.0533333
        k(   16) = (   0.1279470   0.2216107   0.0000000), wk =   0.0533333
        k(   17) = (   0.1279470   0.2954810   0.0000000), wk =   0.1066667
        k(   18) = (   0.1279470   0.3693512   0.0000000), wk =   0.1066667
        k(   19) = (   0.1279470   0.4432214   0.0000000), wk =   0.1066667
        k(   20) = (   0.1279470   0.5170917   0.0000000), wk =   0.1066667
        k(   21) = (   0.1919205   0.3324161   0.0000000), wk =   0.0533333
        k(   22) = (   0.1919205   0.4062863   0.0000000), wk =   0.1066667
        k(   23) = (   0.1919205   0.4801566   0.0000000), wk =   0.1066667
        k(   24) = (   0.1919205   0.5540268   0.0000000), wk =   0.0533333
        k(   25) = (   0.2558940   0.4432214   0.0000000), wk =   0.0533333
        k(   26) = (   0.2558940   0.5170917   0.0000000), wk =   0.1066667
        k(   27) = (   0.3198675   0.5540268   0.0000000), wk =   0.0177778

     Dense  grid:    35637 G-vectors     FFT dimensions: (  24,  24, 192)

     Estimated max dynamical RAM per process >       1.94 MB

     Estimated total dynamical RAM >      62.19 MB
 ----2D----2D----2D----2D----2D----2D----2D----2D----2D----2D----2D----2D
  The code is running with the 2D cutoff
  Please refer to:
  Sohier, T., Calandra, M., & Mauri, F. (2017), 
  Density functional perturbation theory for gated two-dimensional heterostructu
 res:
  Theoretical developments and application to flexural phonons in graphene.
  Physical Review B, 96(7), 75448. https://doi.org/10.1103/PhysRevB.96.075448
 ----2D----2D----2D----2D----2D----2D----2D----2D----2D----2D----2D----2D

     Initial potential from superposition of free atoms

     starting charge    7.98607, renormalised to    8.00000

     negative rho (up, down):  1.107E-04 0.000E+00
     Starting wfcs are random

     total cpu time spent up to now is       19.9 secs

     Self-consistent Calculation

     iteration #  1     ecut=    50.00 Ry     beta= 0.70
     Davidson diagonalization with overlap
     c_bands:  1 eigenvalues not converged
     c_bands:  3 eigenvalues not converged
     c_bands:  5 eigenvalues not converged
     c_bands:  4 eigenvalues not converged
     c_bands:  4 eigenvalues not converged
     c_bands:  4 eigenvalues not converged
     c_bands:  2 eigenvalues not converged
     c_bands:  2 eigenvalues not converged
     c_bands:  3 eigenvalues not converged
     c_bands:  5 eigenvalues not converged
     c_bands:  4 eigenvalues not converged
     c_bands:  4 eigenvalues not converged
     c_bands:  3 eigenvalues not converged
     c_bands:  2 eigenvalues not converged
     c_bands:  3 eigenvalues not converged
     c_bands:  4 eigenvalues not converged
     c_bands:  4 eigenvalues not converged
     c_bands:  4 eigenvalues not converged
     c_bands:  3 eigenvalues not converged
     c_bands:  3 eigenvalues not converged
     c_bands:  4 eigenvalues not converged
     c_bands:  3 eigenvalues not converged
     c_bands:  3 eigenvalues not converged
     c_bands:  3 eigenvalues not converged
     c_bands:  3 eigenvalues not converged
     c_bands:  4 eigenvalues not converged
     c_bands:  3 eigenvalues not converged
     ethr =  1.00E-06,  avg # of iterations = 22.2

     negative rho (up, down):  2.178E-05 0.000E+00

     total cpu time spent up to now is       20.6 secs

     total energy              =     -22.75722275 Ry
     estimated scf accuracy    <       0.20975606 Ry

     iteration #  2     ecut=    50.00 Ry     beta= 0.70
     Davidson diagonalization with overlap
     ethr =  2.62E-03,  avg # of iterations =  2.4

     negative rho (up, down):  2.703E-06 0.000E+00

     total cpu time spent up to now is       20.8 secs

     total energy              =     -22.78900737 Ry
     estimated scf accuracy    <       0.00237585 Ry

     iteration #  3     ecut=    50.00 Ry     beta= 0.70
     Davidson diagonalization with overlap
     ethr =  2.97E-05,  avg # of iterations =  8.8

     total cpu time spent up to now is       21.0 secs

     total energy              =     -22.78941883 Ry
     estimated scf accuracy    <       0.00017587 Ry

     iteration #  4     ecut=    50.00 Ry     beta= 0.70
     Davidson diagonalization with overlap
     c_bands:  1 eigenvalues not converged
     ethr =  2.20E-06,  avg # of iterations =  6.2

     total cpu time spent up to now is       21.1 secs

     total energy              =     -22.78943231 Ry
     estimated scf accuracy    <       0.00000121 Ry

     iteration #  5     ecut=    50.00 Ry     beta= 0.70
     Davidson diagonalization with overlap
     ethr =  1.52E-08,  avg # of iterations =  3.7

     total cpu time spent up to now is       21.2 secs

     total energy              =     -22.78943375 Ry
     estimated scf accuracy    <       0.00000004 Ry

     iteration #  6     ecut=    50.00 Ry     beta= 0.70
     Davidson diagonalization with overlap
     ethr =  4.78E-10,  avg # of iterations =  2.4

     total cpu time spent up to now is       21.4 secs

     total energy              =     -22.78943376 Ry
     estimated scf accuracy    <          8.0E-10 Ry

     iteration #  7     ecut=    50.00 Ry     beta= 0.70
     Davidson diagonalization with overlap
     ethr =  9.98E-12,  avg # of iterations =  3.3

     total cpu time spent up to now is       21.5 secs

     End of self-consistent calculation

          k = 0.0000 0.0000 0.0000 (  4399 PWs)   bands (ev):

   -23.9686 -12.0071  -7.2104  -7.2104  -0.9868  -0.2041   0.5822   0.9375

          k = 0.0000 0.0739 0.0000 (  4415 PWs)   bands (ev):

   -23.8615 -11.8785  -7.6408  -7.4419  -0.8410  -0.0561   0.7311   1.0859

          k = 0.0000 0.1477 0.0000 (  4409 PWs)   bands (ev):

   -23.5410 -11.4932  -8.7808  -8.0229  -0.4035   0.3875   1.1779   1.5306

          k = 0.0000 0.2216 0.0000 (  4417 PWs)   bands (ev):

   -23.0097 -10.8579 -10.3521  -8.7514   0.3252   1.1245   1.9225   2.2697

          k = 0.0000 0.2955 0.0000 (  4447 PWs)   bands (ev):

   -22.2716 -12.1175  -9.9887  -9.4601   1.3429   2.1261   2.8727   2.9633

          k = 0.0000 0.3694 0.0000 (  4459 PWs)   bands (ev):

   -21.3338 -13.9156 -10.0484  -8.9205   0.9156   2.6422   3.5043   3.8879

          k = 0.0000 0.4432 0.0000 (  4469 PWs)   bands (ev):

   -20.2107 -15.6493 -10.4641  -7.7392  -0.8992   3.6623   4.2752   5.1079

          k = 0.0000 0.5171 0.0000 (  4467 PWs)   bands (ev):

   -18.9687 -17.2062 -10.6781  -6.7475  -2.2277   3.5816   6.1089   6.9834

          k = 0.0640 0.1108 0.0000 (  4401 PWs)   bands (ev):

   -23.6476 -11.6205  -8.3696  -7.9015  -0.5493   0.2398   1.0290   1.3825

          k = 0.0640 0.1847 0.0000 (  4422 PWs)   bands (ev):

   -23.2220 -11.1108  -9.6348  -8.6507   0.0342   0.8304   1.6249   1.9748

          k = 0.0640 0.2585 0.0000 (  4428 PWs)   bands (ev):

   -22.5873 -11.2443 -10.3573  -9.4281   0.9081   1.7108   2.5184   2.8554

          k = 0.0640 0.3324 0.0000 (  4452 PWs)   bands (ev):

   -21.7493 -12.9958 -10.1078  -9.3842   1.7867   2.0693   2.9190   3.7060

          k = 0.0640 0.4063 0.0000 (  4456 PWs)   bands (ev):

   -20.7178 -14.7478 -10.6233  -8.2428  -0.0636   3.5030   4.2707   4.3696

          k = 0.0640 0.4802 0.0000 (  4464 PWs)   bands (ev):

   -19.5195 -16.4022 -10.9440  -7.0885  -1.6904   4.0899   5.2602   6.1039

          k = 0.0640 0.5540 0.0000 (  4434 PWs)   bands (ev):

   -18.5048 -17.5718 -11.0517  -6.4757  -2.4637   4.0442   7.1523   7.3065

          k = 0.1279 0.2216 0.0000 (  4415 PWs)   bands (ev):

   -22.6929 -10.7469 -10.4806  -9.6411   0.7634   1.5668   2.3701   2.7140

          k = 0.1279 0.2955 0.0000 (  4438 PWs)   bands (ev):

   -21.9584 -12.1645 -10.5702  -9.6204   1.7817   2.3578   2.6112   3.4127

          k = 0.1279 0.3694 0.0000 (  4451 PWs)   bands (ev):

   -21.0263 -13.7884 -11.2580  -8.5584   0.6335   3.0848   3.9092   4.7494

          k = 0.1279 0.4432 0.0000 (  4465 PWs)   bands (ev):

   -19.9127 -15.4358 -11.7114  -7.3774  -1.0575   4.6572   5.4564   5.4839

          k = 0.1279 0.5171 0.0000 (  4455 PWs)   bands (ev):

   -18.6872 -16.9456 -11.9379  -6.3626  -2.3440   5.3308   6.5198   7.2203

          k = 0.1919 0.3324 0.0000 (  4439 PWs)   bands (ev):

   -21.1297 -13.1831 -11.7789  -8.6654   0.9208   2.9417   3.7485   4.6038

          k = 0.1919 0.4063 0.0000 (  4433 PWs)   bands (ev):

   -20.1135 -14.4932 -12.6132  -7.5375  -0.6074   4.3799   5.1516   6.0888

          k = 0.1919 0.4802 0.0000 (  4450 PWs)   bands (ev):

   -18.9408 -15.9590 -13.0425  -6.3632  -2.0478   6.0737   6.6237   7.1395

          k = 0.1919 0.5540 0.0000 (  4429 PWs)   bands (ev):

   -17.9609 -17.0522 -13.1752  -5.6897  -2.8130   7.0633   7.2898   7.8807

          k = 0.2559 0.4432 0.0000 (  4443 PWs)   bands (ev):

   -19.0332 -15.2702 -13.7822  -6.3772  -1.8931   5.9348   6.3835   7.6796

          k = 0.2559 0.5171 0.0000 (  4438 PWs)   bands (ev):

   -17.8604 -16.3501 -14.3326  -5.2609  -3.0663   6.7419   7.6779   8.8037

          k = 0.3199 0.5540 0.0000 (  4407 PWs)   bands (ev):

   -16.8772 -16.8772 -14.9979  -4.1414  -4.1414   6.5348   8.9742   8.9743

     the Fermi energy is    -4.1414 ev

!    total energy              =     -22.78943376 Ry
     estimated scf accuracy    <          1.2E-11 Ry
     smearing contrib. (-TS)   =      -0.00005015 Ry
     internal energy E=F+TS    =     -22.78938361 Ry

     The total energy is F=E-TS. E is the sum of the following terms:
     one-electron contribution =    -395.96282077 Ry
     hartree contribution      =     198.62364122 Ry
     xc contribution           =      -7.06005721 Ry
     ewald contribution        =     181.60985316 Ry

     convergence has been achieved in   7 iterations

     Forces acting on atoms (cartesian axes, Ry/au):

     atom    1 type  1   force =     0.00000000    0.00000000    0.00000000
     atom    2 type  1   force =     0.00000000    0.00000000    0.00000000

     Total force =     0.000000     Total SCF correction =     0.000000


     Computing stress (Cartesian axis) and pressure

          total   stress  (Ry/bohr**3)                   (kbar)     P=       -0.73
   0.00004806  -0.00000000  -0.00000000            7.07       -0.00       -0.00
  -0.00000000   0.00004806   0.00000000           -0.00        7.07        0.00
   0.00000000  -0.00000000  -0.00011109            0.00       -0.00      -16.34


     Writing output data file ./work/LiC442.save/
 
     init_run     :      0.13s CPU      0.16s WALL (       2 calls)
     electrons    :     19.35s CPU     20.97s WALL (       8 calls)
     update_pot   :      0.07s CPU      0.07s WALL (       6 calls)
     forces       :      0.06s CPU      0.06s WALL (       8 calls)
     stress       :      0.16s CPU      0.17s WALL (       8 calls)

     Called by init_run:
     wfcinit      :      0.10s CPU      0.11s WALL (       2 calls)
     potinit      :      0.01s CPU      0.01s WALL (       2 calls)
     hinit0       :      0.01s CPU      0.02s WALL (       2 calls)

     Called by electrons:
     c_bands      :     17.13s CPU     18.40s WALL (     109 calls)
     sum_band     :      1.98s CPU      2.11s WALL (     109 calls)
     v_of_rho     :      0.18s CPU      0.20s WALL (     114 calls)
     mix_rho      :      0.04s CPU      0.04s WALL (     109 calls)

     Called by c_bands:
     init_us_2    :      0.10s CPU      0.11s WALL (    6372 calls)
     cegterg      :     16.83s CPU     18.04s WALL (    2987 calls)

     Called by *egterg:
     cdiaghg      :      1.55s CPU      1.66s WALL (   17468 calls)
     h_psi        :     14.14s CPU     15.18s WALL (   17771 calls)
     g_psi        :      0.04s CPU      0.04s WALL (   14730 calls)

     Called by h_psi:
     h_psi:calbec :      0.45s CPU      0.48s WALL (   17771 calls)
     vloc_psi     :     13.42s CPU     14.40s WALL (   17771 calls)
     add_vuspsi   :      0.13s CPU      0.14s WALL (   17771 calls)

     General routines
     calbec       :      0.47s CPU      0.50s WALL (   18851 calls)
     fft          :      0.17s CPU      0.18s WALL (    1205 calls)
     ffts         :      0.01s CPU      0.01s WALL (     109 calls)
     fftw         :     14.57s CPU     15.62s WALL (  202752 calls)
 
     Parallel routines
     fft_scatt_xy :      0.76s CPU      0.81s WALL (  204066 calls)
     fft_scatt_yz :      6.14s CPU      6.58s WALL (  204066 calls)
 
     PWSCF        :     19.86s CPU     21.80s WALL

 
   This run was terminated on:  13:38:12  19Jan2024            

=------------------------------------------------------------------------------=
   JOB DONE.
=------------------------------------------------------------------------------=
