
     Program PWSCF v.6.7MaX starts on 19Jan2024 at 14:21:20 

     This program is part of the open-source Quantum ESPRESSO suite
     for quantum simulation of materials; please cite
         "P. Giannozzi et al., J. Phys.:Condens. Matter 21 395502 (2009);
         "P. Giannozzi et al., J. Phys.:Condens. Matter 29 465901 (2017);
          URL http://www.quantum-espresso.org", 
     in publications or presentations arising from this work. More details at
     http://www.quantum-espresso.org/quote

     Parallel version (MPI), running on    32 processors

     MPI processes distributed on     1 nodes
     R & G space division:  proc/nbgrp/npool/nimage =      32
     Waiting for input...
     Reading input from standard input

     Current dimensions of program PWSCF are:
     Max number of different atomic species (ntypx) = 10
     Max number of k-points (npk) =  40000
     Max angular momentum in pseudopotentials (lmaxx) =  3
     Message from routine read_pp_mesh:
     mesh size missing, using the one in header

     Subspace diagonalization in iterative solution of the eigenvalue problem:
     a serial algorithm will be used

 
     Parallelization info
     --------------------
     sticks:   dense  smooth     PW     G-vecs:    dense   smooth      PW
     Min          10      10      3                 1292     1292     223
     Max          12      12      4                 1317     1317     246
     Sum         349     349    109                41811    41811    7349
 


     bravais-lattice index     =            4
     lattice parameter (alat)  =       4.9900  a.u.
     unit-cell volume          =     873.3468 (a.u.)^3
     number of atoms/cell      =            2
     number of atomic types    =            1
     number of electrons       =         8.00
     number of Kohn-Sham states=            8
     kinetic-energy cutoff     =      50.0000  Ry
     charge density cutoff     =     200.0000  Ry
     scf convergence threshold =      1.0E-08
     mixing beta               =       0.7000
     number of iterations used =            8  plain     mixing
     energy convergence thresh.=      1.0E-04
     force convergence thresh. =      1.0E-08
     press convergence thresh. =      1.0E-03
     Exchange-correlation= PBE
                           (   1   4   3   4   0   0   0)
     nstep                     =           50


     celldm(1)=   4.990000  celldm(2)=   0.000000  celldm(3)=   8.116232
     celldm(4)=   0.000000  celldm(5)=   0.000000  celldm(6)=   0.000000

     crystal axes: (cart. coord. in units of alat)
               a(1) = (   1.000000   0.000000   0.000000 )  
               a(2) = (  -0.500000   0.866025   0.000000 )  
               a(3) = (   0.000000   0.000000   8.116232 )  

     reciprocal axes: (cart. coord. in units 2 pi/alat)
               b(1) = (  1.000000  0.577350  0.000000 )  
               b(2) = (  0.000000  1.154701  0.000000 )  
               b(3) = (  0.000000  0.000000  0.123210 )  


     PseudoPot. # 1 for C  read from file:
     /home/yhkim/qe-6.7/pseudo/ONCV1/1.2/C_ONCV_PBE-1.2.upf
     MD5 check sum: 1a5f83a7b1f58d24996abe00ed223ac6
     Pseudo is Norm-conserving, Zval =  4.0
     Generated using ONCVPSP code by D. R. Hamann
     Using radial grid of  602 points,  4 beta functions with: 
                l(1) =   0
                l(2) =   0
                l(3) =   1
                l(4) =   1

     atomic species   valence    mass     pseudopotential
        C              4.00    12.01070     C ( 1.00)

     24 Sym. Ops., with inversion, found



   Cartesian axes

     site n.     atom                  positions (alat units)
         1           C   tau(   1) = (  -0.0000000   0.5773503   4.0581162  )
         2           C   tau(   2) = (   0.5000000   0.2886751   4.0581162  )

     number of k points=    27  Methfessel-Paxton smearing, width (Ry)=  0.0100
                       cart. coord. in units 2pi/alat
        k(    1) = (   0.0000000   0.0000000   0.0000000), wk =   0.0088889
        k(    2) = (   0.0000000   0.0769800   0.0000000), wk =   0.0533333
        k(    3) = (   0.0000000   0.1539601   0.0000000), wk =   0.0533333
        k(    4) = (   0.0000000   0.2309401   0.0000000), wk =   0.0533333
        k(    5) = (   0.0000000   0.3079201   0.0000000), wk =   0.0533333
        k(    6) = (   0.0000000   0.3849002   0.0000000), wk =   0.0533333
        k(    7) = (   0.0000000   0.4618802   0.0000000), wk =   0.0533333
        k(    8) = (   0.0000000   0.5388603   0.0000000), wk =   0.0533333
        k(    9) = (   0.0666667   0.1154701   0.0000000), wk =   0.0533333
        k(   10) = (   0.0666667   0.1924501   0.0000000), wk =   0.1066667
        k(   11) = (   0.0666667   0.2694301   0.0000000), wk =   0.1066667
        k(   12) = (   0.0666667   0.3464102   0.0000000), wk =   0.1066667
        k(   13) = (   0.0666667   0.4233902   0.0000000), wk =   0.1066667
        k(   14) = (   0.0666667   0.5003702   0.0000000), wk =   0.1066667
        k(   15) = (   0.0666667   0.5773503   0.0000000), wk =   0.0533333
        k(   16) = (   0.1333333   0.2309401   0.0000000), wk =   0.0533333
        k(   17) = (   0.1333333   0.3079201   0.0000000), wk =   0.1066667
        k(   18) = (   0.1333333   0.3849002   0.0000000), wk =   0.1066667
        k(   19) = (   0.1333333   0.4618802   0.0000000), wk =   0.1066667
        k(   20) = (   0.1333333   0.5388603   0.0000000), wk =   0.1066667
        k(   21) = (   0.2000000   0.3464102   0.0000000), wk =   0.0533333
        k(   22) = (   0.2000000   0.4233902   0.0000000), wk =   0.1066667
        k(   23) = (   0.2000000   0.5003702   0.0000000), wk =   0.1066667
        k(   24) = (   0.2000000   0.5773503   0.0000000), wk =   0.0533333
        k(   25) = (   0.2666667   0.4618802   0.0000000), wk =   0.0533333
        k(   26) = (   0.2666667   0.5388603   0.0000000), wk =   0.1066667
        k(   27) = (   0.3333333   0.5773503   0.0000000), wk =   0.0177778

     Dense  grid:    41811 G-vectors     FFT dimensions: (  24,  24, 192)

     Estimated max dynamical RAM per process >       2.12 MB

     Estimated total dynamical RAM >      67.76 MB
 ----2D----2D----2D----2D----2D----2D----2D----2D----2D----2D----2D----2D
  The code is running with the 2D cutoff
  Please refer to:
  Sohier, T., Calandra, M., & Mauri, F. (2017), 
  Density functional perturbation theory for gated two-dimensional heterostructu
 res:
  Theoretical developments and application to flexural phonons in graphene.
  Physical Review B, 96(7), 75448. https://doi.org/10.1103/PhysRevB.96.075448
 ----2D----2D----2D----2D----2D----2D----2D----2D----2D----2D----2D----2D

     Initial potential from superposition of free atoms

     starting charge    7.98607, renormalised to    8.00000

     negative rho (up, down):  1.266E-04 0.000E+00
     Starting wfcs are random

     total cpu time spent up to now is        0.1 secs

     Self-consistent Calculation

     iteration #  1     ecut=    50.00 Ry     beta= 0.70
     Davidson diagonalization with overlap
     ethr =  1.00E-02,  avg # of iterations = 12.5

     negative rho (up, down):  1.301E-07 0.000E+00

     total cpu time spent up to now is        0.6 secs

     total energy              =     -22.73121485 Ry
     estimated scf accuracy    <       0.08786451 Ry

     iteration #  2     ecut=    50.00 Ry     beta= 0.70
     Davidson diagonalization with overlap
     ethr =  1.10E-03,  avg # of iterations =  2.3

     total cpu time spent up to now is        0.7 secs

     total energy              =     -22.74755655 Ry
     estimated scf accuracy    <       0.00197671 Ry

     iteration #  3     ecut=    50.00 Ry     beta= 0.70
     Davidson diagonalization with overlap
     ethr =  2.47E-05,  avg # of iterations =  8.7

     total cpu time spent up to now is        0.9 secs

     total energy              =     -22.74872442 Ry
     estimated scf accuracy    <       0.00009424 Ry

     iteration #  4     ecut=    50.00 Ry     beta= 0.70
     Davidson diagonalization with overlap
     ethr =  1.18E-06,  avg # of iterations =  6.2

     total cpu time spent up to now is        1.2 secs

     total energy              =     -22.74876895 Ry
     estimated scf accuracy    <       0.00000200 Ry

     iteration #  5     ecut=    50.00 Ry     beta= 0.70
     Davidson diagonalization with overlap
     ethr =  2.50E-08,  avg # of iterations =  3.7

     total cpu time spent up to now is        1.3 secs

     total energy              =     -22.74877130 Ry
     estimated scf accuracy    <       0.00000004 Ry

     iteration #  6     ecut=    50.00 Ry     beta= 0.70
     Davidson diagonalization with overlap
     ethr =  5.32E-10,  avg # of iterations =  2.7

     total cpu time spent up to now is        1.5 secs

     End of self-consistent calculation

          k = 0.0000 0.0000 0.0000 (  5263 PWs)   bands (ev):

   -22.7398 -11.1166  -7.8676  -7.8676  -0.9360  -0.1971   0.6047   0.9566

          k = 0.0000 0.0770 0.0000 (  5265 PWs)   bands (ev):

   -22.6473 -11.0113  -8.2701  -8.0467  -0.8113  -0.0716   0.7317   1.0824

          k = 0.0000 0.1540 0.0000 (  5249 PWs)   bands (ev):

   -22.3705 -10.6954  -9.3208  -8.5020  -0.4375   0.3043   1.1125   1.4599

          k = 0.0000 0.2309 0.0000 (  5252 PWs)   bands (ev):

   -21.9120 -10.7341 -10.1771  -9.0794   0.1847   0.9273   1.7337   1.7851

          k = 0.0000 0.3079 0.0000 (  5218 PWs)   bands (ev):

   -21.2767 -12.2900  -9.6462  -9.4698   0.8163   1.0509   1.3972   1.8186

          k = 0.0000 0.3849 0.0000 (  5194 PWs)   bands (ev):

   -20.4747 -13.8558 -10.1217  -8.6057  -0.6446   1.0643   2.1704   2.9311

          k = 0.0000 0.4619 0.0000 (  5204 PWs)   bands (ev):

   -19.5328 -15.3370 -10.4587  -7.6643  -2.0410   0.8277   3.5214   4.2840

          k = 0.0000 0.5389 0.0000 (  5206 PWs)   bands (ev):

   -18.5839 -16.5643 -10.6319  -6.8929  -3.0522   0.7044   5.0929   5.8448

          k = 0.0667 0.1155 0.0000 (  5241 PWs)   bands (ev):

   -22.4626 -10.8002  -8.9555  -8.4041  -0.5620   0.1792   0.9856   1.3341

          k = 0.0667 0.1925 0.0000 (  5254 PWs)   bands (ev):

   -22.0950 -10.3831 -10.1141  -8.9977  -0.0640   0.6794   1.4933   1.8362

          k = 0.0667 0.2694 0.0000 (  5249 PWs)   bands (ev):

   -21.5480 -11.5441  -9.7696  -9.6285   0.6816   1.3504   1.4969   1.9954

          k = 0.0667 0.3464 0.0000 (  5215 PWs)   bands (ev):

   -20.8285 -13.0739 -10.1843  -8.9797   0.0103   1.6176   1.7003   2.4299

          k = 0.0667 0.4234 0.0000 (  5197 PWs)   bands (ev):

   -19.9527 -14.5843 -10.6084  -8.0618  -1.4163   1.3569   2.9083   3.6622

          k = 0.0667 0.5004 0.0000 (  5195 PWs)   bands (ev):

   -18.9731 -15.9636 -10.8730  -7.1503  -2.6631   1.1752   4.3704   5.1126

          k = 0.0667 0.5774 0.0000 (  5208 PWs)   bands (ev):

   -18.2984 -16.7751 -10.9629  -6.6824  -3.2474   1.1132   5.9432   6.1212

          k = 0.1333 0.2309 0.0000 (  5259 PWs)   bands (ev):

   -21.6388 -11.1546  -9.8698  -9.7830   0.5577   1.3028   1.6418   2.1278

          k = 0.1333 0.3079 0.0000 (  5222 PWs)   bands (ev):

   -21.0070 -12.4179 -10.5462  -9.1695   0.4115   1.4255   2.1710   2.9371

          k = 0.1333 0.3849 0.0000 (  5201 PWs)   bands (ev):

   -20.2106 -13.8138 -11.1365  -8.3119  -0.9229   2.5202   2.6387   3.2750

          k = 0.1333 0.4619 0.0000 (  5193 PWs)   bands (ev):

   -19.2765 -15.2049 -11.5304  -7.3681  -2.2250   2.3829   3.8827   4.5897

          k = 0.1333 0.5389 0.0000 (  5179 PWs)   bands (ev):

   -18.3327 -16.3918 -11.7266  -6.5774  -3.2079   2.2594   5.4286   5.9895

          k = 0.2000 0.3464 0.0000 (  5206 PWs)   bands (ev):

   -20.2975 -13.3924 -11.5022  -8.3969  -0.7278   2.4122   3.1420   4.0255

          k = 0.2000 0.4234 0.0000 (  5198 PWs)   bands (ev):

   -19.4363 -14.5267 -12.2127  -7.4911  -1.9272   3.6280   4.0456   4.3115

          k = 0.2000 0.5004 0.0000 (  5204 PWs)   bands (ev):

   -18.4735 -15.7177 -12.6125  -6.5598  -3.0491   3.8455   5.0687   5.5065

          k = 0.2000 0.5774 0.0000 (  5198 PWs)   bands (ev):

   -17.7946 -16.4839 -12.7392  -6.0400  -3.6359   3.7823   6.0420   6.4222

          k = 0.2667 0.4619 0.0000 (  5204 PWs)   bands (ev):

   -18.5334 -15.3115 -13.0922  -6.5634  -2.9628   4.9256   5.3172   5.3207

          k = 0.2667 0.5389 0.0000 (  5192 PWs)   bands (ev):

   -17.6030 -16.1897 -13.5460  -5.6801  -3.8965   5.3742   5.6742   6.2616

          k = 0.3333 0.5774 0.0000 (  5220 PWs)   bands (ev):

   -16.7933 -16.7933 -13.9413  -4.7801  -4.7801   5.5536   6.3353   6.3353

     the Fermi energy is    -4.7801 ev

!    total energy              =     -22.74877132 Ry
     estimated scf accuracy    <          1.2E-10 Ry
     smearing contrib. (-TS)   =      -0.00005015 Ry
     internal energy E=F+TS    =     -22.74872117 Ry

     The total energy is F=E-TS. E is the sum of the following terms:
     one-electron contribution =    -336.83504713 Ry
     hartree contribution      =     168.91775354 Ry
     xc contribution           =      -6.73069625 Ry
     ewald contribution        =     151.89926866 Ry

     convergence has been achieved in   6 iterations

     Forces acting on atoms (cartesian axes, Ry/au):

     atom    1 type  1   force =     0.00000000    0.00000000    0.00000000
     atom    2 type  1   force =     0.00000000    0.00000000    0.00000000

     Total force =     0.000000     Total SCF correction =     0.000000


     Computing stress (Cartesian axis) and pressure

          total   stress  (Ry/bohr**3)                   (kbar)     P=      -77.48
  -0.00074607  -0.00000000  -0.00000000         -109.75       -0.00       -0.00
  -0.00000000  -0.00074607   0.00000000           -0.00     -109.75        0.00
  -0.00000000   0.00000000  -0.00008806           -0.00        0.00      -12.95


     BFGS Geometry Optimization
     Energy error            =      0.0E+00
     Gradient error          =      0.0E+00
     Cell gradient error     =      7.5E-04


     number of scf cycles    =   1
     number of bfgs steps    =   0

     enthalpy new            =     -22.7487713203 Ry

     new trust radius        =       0.1102405745 bohr
     new conv_thr            =       0.0000000100 Ry

     new unit-cell volume =    841.07187 a.u.^3 (   124.63399 Ang^3 )
     density =      0.32004 g/cm^3

CELL_PARAMETERS (alat=  4.99000000)
   0.981348314  -0.000000000   0.000000000
  -0.490674157   0.849872570   0.000000000
   0.000000000   0.000000000   8.116232465

ATOMIC_POSITIONS (crystal)
C             0.3333333333        0.6666666667        0.5000000000
C             0.6666666667        0.3333333333        0.5000000000



     Writing output data file ./work/LiC499.save/
     NEW-OLD atomic charge density approx. for the potential

     negative rho (up, down):  7.416E-06 0.000E+00
     extrapolated charge    7.69355, renormalised to    8.00000

     total cpu time spent up to now is        1.5 secs

     Self-consistent Calculation

     iteration #  1     ecut=    50.00 Ry     beta= 0.70
     Davidson diagonalization with overlap
     c_bands:  3 eigenvalues not converged
     c_bands:  3 eigenvalues not converged
     c_bands:  3 eigenvalues not converged
     c_bands:  3 eigenvalues not converged
     c_bands:  1 eigenvalues not converged
     c_bands:  1 eigenvalues not converged
     c_bands:  2 eigenvalues not converged
     c_bands:  4 eigenvalues not converged
     c_bands:  2 eigenvalues not converged
     c_bands:  2 eigenvalues not converged
     c_bands:  2 eigenvalues not converged
     c_bands:  1 eigenvalues not converged
     c_bands:  1 eigenvalues not converged
     c_bands:  1 eigenvalues not converged
     c_bands:  1 eigenvalues not converged
     c_bands:  2 eigenvalues not converged
     c_bands:  2 eigenvalues not converged
     c_bands:  1 eigenvalues not converged
     c_bands:  1 eigenvalues not converged
     c_bands:  2 eigenvalues not converged
     c_bands:  1 eigenvalues not converged
     ethr =  1.00E-06,  avg # of iterations = 19.1

     negative rho (up, down):  8.241E-07 0.000E+00

     total cpu time spent up to now is        2.0 secs

     total energy              =     -22.73533413 Ry
     estimated scf accuracy    <       0.01915725 Ry

     iteration #  2     ecut=    50.00 Ry     beta= 0.70
     Davidson diagonalization with overlap
     ethr =  2.39E-04,  avg # of iterations = 10.2

     negative rho (up, down):  1.925E-07 0.000E+00

     total cpu time spent up to now is        2.3 secs

     total energy              =     -22.77140245 Ry
     estimated scf accuracy    <       0.01673429 Ry

     iteration #  3     ecut=    50.00 Ry     beta= 0.70
     Davidson diagonalization with overlap
     ethr =  2.09E-04,  avg # of iterations =  1.0

     total cpu time spent up to now is        2.4 secs

     total energy              =     -22.77011537 Ry
     estimated scf accuracy    <       0.00361284 Ry

     iteration #  4     ecut=    50.00 Ry     beta= 0.70
     Davidson diagonalization with overlap
     ethr =  4.52E-05,  avg # of iterations =  4.1

     total cpu time spent up to now is        2.6 secs

     total energy              =     -22.77056031 Ry
     estimated scf accuracy    <       0.00007704 Ry

     iteration #  5     ecut=    50.00 Ry     beta= 0.70
     Davidson diagonalization with overlap
     ethr =  9.63E-07,  avg # of iterations =  7.0

     total cpu time spent up to now is        2.8 secs

     total energy              =     -22.77058547 Ry
     estimated scf accuracy    <       0.00000566 Ry

     iteration #  6     ecut=    50.00 Ry     beta= 0.70
     Davidson diagonalization with overlap
     ethr =  7.08E-08,  avg # of iterations =  2.2

     total cpu time spent up to now is        2.9 secs

     total energy              =     -22.77058054 Ry
     estimated scf accuracy    <       0.00001098 Ry

     iteration #  7     ecut=    50.00 Ry     beta= 0.70
     Davidson diagonalization with overlap
     ethr =  7.08E-08,  avg # of iterations =  2.0

     total cpu time spent up to now is        3.0 secs

     total energy              =     -22.77058203 Ry
     estimated scf accuracy    <       0.00000067 Ry

     iteration #  8     ecut=    50.00 Ry     beta= 0.70
     Davidson diagonalization with overlap
     ethr =  8.36E-09,  avg # of iterations =  1.1

     total cpu time spent up to now is        3.1 secs

     total energy              =     -22.77058209 Ry
     estimated scf accuracy    <       0.00000050 Ry

     iteration #  9     ecut=    50.00 Ry     beta= 0.70
     Davidson diagonalization with overlap
     ethr =  6.27E-09,  avg # of iterations =  2.0

     total cpu time spent up to now is        3.3 secs

     total energy              =     -22.77058210 Ry
     estimated scf accuracy    <       0.00000005 Ry

     iteration # 10     ecut=    50.00 Ry     beta= 0.70
     Davidson diagonalization with overlap
     ethr =  6.35E-10,  avg # of iterations =  2.2

     total cpu time spent up to now is        3.4 secs

     End of self-consistent calculation

          k = 0.0000 0.0000 0.0000 (  5263 PWs)   bands (ev):

   -23.0227 -11.3153  -7.7440  -7.7440  -0.9480  -0.1973   0.6032   0.9554

          k = 0.0000 0.0784 0.0000 (  5265 PWs)   bands (ev):

   -22.9269 -11.2048  -8.1500  -7.9341  -0.8186  -0.0669   0.7350   1.0863

          k = 0.0000 0.1569 0.0000 (  5249 PWs)   bands (ev):

   -22.6402 -10.8735  -9.2167  -8.4166  -0.4307   0.3240   1.1304   1.4784

          k = 0.0000 0.2353 0.0000 (  5252 PWs)   bands (ev):

   -22.1651 -10.6618 -10.3296  -9.0265   0.2149   0.9722   1.7887   2.1265

          k = 0.0000 0.3138 0.0000 (  5218 PWs)   bands (ev):

   -21.5061 -12.2617  -9.6237  -9.5866   1.1152   1.2513   1.9100   2.0168

          k = 0.0000 0.3922 0.0000 (  5194 PWs)   bands (ev):

   -20.6728 -13.8786 -10.1237  -8.6774  -0.2998   1.6895   2.2824   3.0585

          k = 0.0000 0.4707 0.0000 (  5204 PWs)   bands (ev):

   -19.6890 -15.4168 -10.4777  -7.6835  -1.7877   1.4612   3.6818   4.4676

          k = 0.0000 0.5491 0.0000 (  5206 PWs)   bands (ev):

   -18.6752 -16.7168 -10.6596  -6.8644  -2.8674   1.3399   5.3161   6.0988

          k = 0.0679 0.1177 0.0000 (  5241 PWs)   bands (ev):

   -22.7357 -10.9834  -8.8426  -8.3134  -0.5600   0.1938   0.9986   1.3478

          k = 0.0679 0.1961 0.0000 (  5254 PWs)   bands (ev):

   -22.3547 -10.5458 -10.0214  -8.9406  -0.0431   0.7141   1.5257   1.8698

          k = 0.0679 0.2746 0.0000 (  5249 PWs)   bands (ev):

   -21.7876 -11.4882  -9.9016  -9.6037   0.7308   1.4789   1.9232   2.3136

          k = 0.0679 0.3530 0.0000 (  5215 PWs)   bands (ev):

   -21.0409 -13.0657 -10.1863  -9.0713   0.4028   1.7555   2.2877   2.5372

          k = 0.0679 0.4314 0.0000 (  5197 PWs)   bands (ev):

   -20.1292 -14.6298 -10.6304  -8.1041  -1.1179   1.9993   3.0463   3.8197

          k = 0.0679 0.5099 0.0000 (  5195 PWs)   bands (ev):

   -19.0992 -16.0714 -10.9072  -7.1395  -2.4469   1.8218   4.5644   5.3333

          k = 0.0679 0.5883 0.0000 (  5208 PWs)   bands (ev):

   -18.3593 -16.9521 -11.0011  -6.6409  -3.0719   1.7606   6.2108   6.3822

          k = 0.1359 0.2353 0.0000 (  5259 PWs)   bands (ev):

   -21.8819 -11.0758 -10.0069  -9.7705   0.6023   1.3623   2.1532   2.1846

          k = 0.1359 0.3138 0.0000 (  5222 PWs)   bands (ev):

   -21.2264 -12.3710 -10.5709  -9.2710   0.8396   1.5033   2.2664   3.1051

          k = 0.1359 0.3922 0.0000 (  5201 PWs)   bands (ev):

   -20.3988 -13.8157 -11.1837  -8.3685  -0.5820   2.6529   3.3037   3.4162

          k = 0.1359 0.4707 0.0000 (  5193 PWs)   bands (ev):

   -19.4234 -15.2637 -11.5910  -7.3725  -1.9681   3.0625   4.0592   4.7885

          k = 0.1359 0.5491 0.0000 (  5179 PWs)   bands (ev):

   -18.4177 -16.5213 -11.7940  -6.5335  -3.0164   2.9414   5.6690   6.2616

          k = 0.2038 0.3530 0.0000 (  5206 PWs)   bands (ev):

   -20.4895 -13.3562 -11.5815  -8.4583  -0.3680   2.5281   3.2772   4.1577

          k = 0.2038 0.4314 0.0000 (  5198 PWs)   bands (ev):

   -19.5929 -14.5267 -12.3226  -7.5037  -1.6394   3.7949   4.4980   4.7830

          k = 0.2038 0.5099 0.0000 (  5204 PWs)   bands (ev):

   -18.5826 -15.7761 -12.7319  -6.5194  -2.8302   4.5780   5.2990   5.7518

          k = 0.2038 0.5883 0.0000 (  5198 PWs)   bands (ev):

   -17.8458 -16.6054 -12.8608  -5.9669  -3.4553   4.5165   6.3129   6.7646

          k = 0.2717 0.4707 0.0000 (  5204 PWs)   bands (ev):

   -18.6499 -15.3135 -13.2626  -6.5251  -2.7302   5.1525   5.5539   6.8444

          k = 0.2717 0.5491 0.0000 (  5192 PWs)   bands (ev):

   -17.6679 -16.2302 -13.7419  -5.5912  -3.7165   5.9074   6.1450   6.6392

          k = 0.3397 0.5883 0.0000 (  5220 PWs)   bands (ev):

   -16.8249 -16.8249 -14.1844  -4.6433  -4.6433   5.7684   7.0233   7.0233

     the Fermi energy is    -4.6433 ev

!    total energy              =     -22.77058211 Ry
     estimated scf accuracy    <          4.1E-09 Ry
     smearing contrib. (-TS)   =      -0.00005015 Ry
     internal energy E=F+TS    =     -22.77053196 Ry

     The total energy is F=E-TS. E is the sum of the following terms:
     one-electron contribution =    -349.87665508 Ry
     hartree contribution      =     175.46784021 Ry
     xc contribution           =      -6.80475800 Ry
     ewald contribution        =     158.44304092 Ry

     convergence has been achieved in  10 iterations

     Forces acting on atoms (cartesian axes, Ry/au):

     atom    1 type  1   force =    -0.00000000   -0.00000000    0.00000000
     atom    2 type  1   force =     0.00000000    0.00000000    0.00000000

     Total force =     0.000000     Total SCF correction =     0.000000


     Computing stress (Cartesian axis) and pressure

          total   stress  (Ry/bohr**3)                   (kbar)     P=      -63.09
  -0.00059984  -0.00000000   0.00000000          -88.24       -0.00        0.00
  -0.00000000  -0.00059984   0.00000000           -0.00      -88.24        0.00
   0.00000000   0.00000000  -0.00008698            0.00        0.00      -12.80

     Energy error            =      2.2E-02
     Gradient error          =      1.8E-26
     Cell gradient error     =      6.0E-04


     number of scf cycles    =   2
     number of bfgs steps    =   1

     enthalpy old            =     -22.7487713203 Ry
     enthalpy new            =     -22.7705821110 Ry

     CASE: enthalpy_new < enthalpy_old

     new trust radius        =       0.1212646320 bohr
     new conv_thr            =            1.0E-10 Ry

     new unit-cell volume =    806.27125 a.u.^3 (   119.47707 Ang^3 )
     density =      0.33386 g/cm^3

CELL_PARAMETERS (alat=  4.99000000)
   0.960831459  -0.000000000   0.000000000
  -0.480415729   0.832104452   0.000000000
   0.000000000   0.000000000   8.116232465

ATOMIC_POSITIONS (crystal)
C             0.3333333333        0.6666666667        0.5000000000
C             0.6666666667        0.3333333333        0.5000000000



     Writing output data file ./work/LiC499.save/
     NEW-OLD atomic charge density approx. for the potential

     negative rho (up, down):  6.743E-06 0.000E+00
     extrapolated charge    7.65530, renormalised to    8.00000

     total cpu time spent up to now is        3.5 secs

     Self-consistent Calculation

     iteration #  1     ecut=    50.00 Ry     beta= 0.70
     Davidson diagonalization with overlap
     c_bands:  2 eigenvalues not converged
     c_bands:  1 eigenvalues not converged
     c_bands:  4 eigenvalues not converged
     c_bands:  1 eigenvalues not converged
     c_bands:  1 eigenvalues not converged
     c_bands:  1 eigenvalues not converged
     c_bands:  1 eigenvalues not converged
     c_bands:  1 eigenvalues not converged
     c_bands:  4 eigenvalues not converged
     c_bands:  3 eigenvalues not converged
     c_bands:  2 eigenvalues not converged
     c_bands:  2 eigenvalues not converged
     c_bands:  1 eigenvalues not converged
     c_bands:  1 eigenvalues not converged
     c_bands:  1 eigenvalues not converged
     c_bands:  2 eigenvalues not converged
     c_bands:  2 eigenvalues not converged
     c_bands:  1 eigenvalues not converged
     c_bands:  1 eigenvalues not converged
     c_bands:  1 eigenvalues not converged
     c_bands:  1 eigenvalues not converged
     c_bands:  1 eigenvalues not converged
     c_bands:  2 eigenvalues not converged
     c_bands:  1 eigenvalues not converged
     ethr =  1.00E-06,  avg # of iterations = 19.4

     negative rho (up, down):  6.869E-07 0.000E+00

     total cpu time spent up to now is        4.0 secs

     total energy              =     -22.74354872 Ry
     estimated scf accuracy    <       0.02399155 Ry

     iteration #  2     ecut=    50.00 Ry     beta= 0.70
     Davidson diagonalization with overlap
     ethr =  3.00E-04,  avg # of iterations =  9.8

     negative rho (up, down):  1.433E-07 0.000E+00

     total cpu time spent up to now is        4.3 secs

     total energy              =     -22.78914405 Ry
     estimated scf accuracy    <       0.02129996 Ry

     iteration #  3     ecut=    50.00 Ry     beta= 0.70
     Davidson diagonalization with overlap
     ethr =  2.66E-04,  avg # of iterations =  1.0

     total cpu time spent up to now is        4.4 secs

     total energy              =     -22.78761584 Ry
     estimated scf accuracy    <       0.00457297 Ry

     iteration #  4     ecut=    50.00 Ry     beta= 0.70
     Davidson diagonalization with overlap
     ethr =  5.72E-05,  avg # of iterations =  3.1

     total cpu time spent up to now is        4.5 secs

     total energy              =     -22.78807870 Ry
     estimated scf accuracy    <       0.00016276 Ry

     iteration #  5     ecut=    50.00 Ry     beta= 0.70
     Davidson diagonalization with overlap
     c_bands:  1 eigenvalues not converged
     c_bands:  1 eigenvalues not converged
     c_bands:  1 eigenvalues not converged
     c_bands:  1 eigenvalues not converged
     ethr =  2.03E-06,  avg # of iterations =  8.4

     total cpu time spent up to now is        4.7 secs

     total energy              =     -22.78812500 Ry
     estimated scf accuracy    <       0.00000597 Ry

     iteration #  6     ecut=    50.00 Ry     beta= 0.70
     Davidson diagonalization with overlap
     ethr =  7.47E-08,  avg # of iterations =  3.2

     total cpu time spent up to now is        4.9 secs

     total energy              =     -22.78811350 Ry
     estimated scf accuracy    <       0.00002244 Ry

     iteration #  7     ecut=    50.00 Ry     beta= 0.70
     Davidson diagonalization with overlap
     ethr =  7.47E-08,  avg # of iterations =  3.1

     total cpu time spent up to now is        5.0 secs

     total energy              =     -22.78811760 Ry
     estimated scf accuracy    <       0.00000056 Ry

     iteration #  8     ecut=    50.00 Ry     beta= 0.70
     Davidson diagonalization with overlap
     ethr =  6.94E-09,  avg # of iterations =  1.3

     total cpu time spent up to now is        5.1 secs

     total energy              =     -22.78811758 Ry
     estimated scf accuracy    <       0.00000029 Ry

     iteration #  9     ecut=    50.00 Ry     beta= 0.70
     Davidson diagonalization with overlap
     ethr =  3.68E-09,  avg # of iterations =  2.0

     total cpu time spent up to now is        5.2 secs

     total energy              =     -22.78811759 Ry
     estimated scf accuracy    <          6.8E-09 Ry

     iteration # 10     ecut=    50.00 Ry     beta= 0.70
     Davidson diagonalization with overlap
     ethr =  8.48E-11,  avg # of iterations =  2.9

     total cpu time spent up to now is        5.4 secs

     total energy              =     -22.78811760 Ry
     estimated scf accuracy    <          5.4E-10 Ry

     iteration # 11     ecut=    50.00 Ry     beta= 0.70
     Davidson diagonalization with overlap
     ethr =  6.73E-12,  avg # of iterations =  2.4

     total cpu time spent up to now is        5.5 secs

     total energy              =     -22.78811760 Ry
     estimated scf accuracy    <          4.8E-10 Ry

     iteration # 12     ecut=    50.00 Ry     beta= 0.70
     Davidson diagonalization with overlap
     ethr =  5.97E-12,  avg # of iterations =  1.9

     total cpu time spent up to now is        5.6 secs

     End of self-consistent calculation

          k = 0.0000 0.0000 0.0000 (  5263 PWs)   bands (ev):

   -23.3426 -11.5453  -7.5863  -7.5863  -0.9604  -0.1967   0.6022   0.9548

          k = 0.0000 0.0801 0.0000 (  5265 PWs)   bands (ev):

   -23.2430 -11.4288  -7.9981  -7.7895  -0.8256  -0.0605   0.7397   1.0914

          k = 0.0000 0.1602 0.0000 (  5249 PWs)   bands (ev):

   -22.9450 -11.0795  -9.0864  -8.3042  -0.4213   0.3479   1.1521   1.5010

          k = 0.0000 0.2404 0.0000 (  5252 PWs)   bands (ev):

   -22.4509 -10.5706 -10.5057  -8.9525   0.2517   1.0256   1.8389   2.1804

          k = 0.0000 0.3205 0.0000 (  5218 PWs)   bands (ev):

   -21.7650 -12.2223  -9.7211  -9.5856   1.1909   1.7238   2.0531   2.7059

          k = 0.0000 0.4006 0.0000 (  5194 PWs)   bands (ev):

   -20.8961 -13.8983 -10.1144  -8.7591   0.1024   2.3262   2.5031   3.2084

          k = 0.0000 0.4807 0.0000 (  5204 PWs)   bands (ev):

   -19.8647 -15.5018 -10.4884  -7.7038  -1.4931   2.1999   3.8721   4.6825

          k = 0.0000 0.5608 0.0000 (  5206 PWs)   bands (ev):

   -18.7745 -16.8874 -10.6805  -6.8282  -2.6536   2.0844   5.5782   6.3951

          k = 0.0694 0.1202 0.0000 (  5241 PWs)   bands (ev):

   -23.0442 -11.1954  -8.7014  -8.1947  -0.5560   0.2119   1.0146   1.3646

          k = 0.0694 0.2003 0.0000 (  5254 PWs)   bands (ev):

   -22.6481 -10.7339  -9.9060  -8.8616  -0.0171   0.7554   1.5645   1.9100

          k = 0.0694 0.2804 0.0000 (  5249 PWs)   bands (ev):

   -22.0581 -11.4169 -10.0538  -9.5624   0.7897   1.5619   2.3882   2.4810

          k = 0.0694 0.3605 0.0000 (  5215 PWs)   bands (ev):

   -21.2803 -13.0500 -10.1764  -9.1762   0.8611   1.8604   2.6642   3.0178

          k = 0.0694 0.4406 0.0000 (  5197 PWs)   bands (ev):

   -20.3278 -14.6761 -10.6439  -8.1515  -0.7696   2.7374   3.2179   4.0045

          k = 0.0694 0.5208 0.0000 (  5195 PWs)   bands (ev):

   -19.2403 -16.1892 -10.9348  -7.1245  -2.1956   2.5772   4.7930   5.5914

          k = 0.0694 0.6009 0.0000 (  5208 PWs)   bands (ev):

   -18.4175 -17.1575 -11.0335  -6.5894  -2.8690   2.5185   6.5230   6.6883

          k = 0.1388 0.2404 0.0000 (  5259 PWs)   bands (ev):

   -22.1562 -10.9774 -10.1651  -9.7440   0.6559   1.4328   2.2519   2.7547

          k = 0.1388 0.3205 0.0000 (  5222 PWs)   bands (ev):

   -21.4739 -12.3105 -10.5870  -9.3877   1.3417   1.5957   2.3792   3.2132

          k = 0.1388 0.4006 0.0000 (  5201 PWs)   bands (ev):

   -20.6107 -13.8125 -11.2251  -8.4327  -0.1823   2.7965   3.5820   4.0766

          k = 0.1388 0.4807 0.0000 (  5193 PWs)   bands (ev):

   -19.5883 -15.3265 -11.6476  -7.3754  -1.6676   3.8430   4.2754   5.0212

          k = 0.1388 0.5608 0.0000 (  5179 PWs)   bands (ev):

   -18.5095 -16.6675 -11.8582  -6.4793  -2.7935   3.7364   5.9503   6.5805

          k = 0.2082 0.3605 0.0000 (  5206 PWs)   bands (ev):

   -20.7058 -13.3071 -11.6619  -8.5281   0.0549   2.6652   3.4359   4.3116

          k = 0.2082 0.4406 0.0000 (  5198 PWs)   bands (ev):

   -19.7687 -14.5210 -12.4366  -7.5165  -1.3009   3.9889   4.7165   5.5969

          k = 0.2082 0.5208 0.0000 (  5204 PWs)   bands (ev):

   -18.7036 -15.8401 -12.8544  -6.4697  -2.5730   5.3897   5.6020   6.0404

          k = 0.2082 0.6009 0.0000 (  5198 PWs)   bands (ev):

   -17.8934 -16.7492 -12.9851  -5.8784  -3.2437   5.3668   6.6334   7.1438

          k = 0.2775 0.4807 0.0000 (  5204 PWs)   bands (ev):

   -18.7796 -15.3072 -13.4491  -6.4782  -2.4560   5.4132   5.8285   7.1232

          k = 0.2775 0.5608 0.0000 (  5192 PWs)   bands (ev):

   -17.7358 -16.2723 -13.9558  -5.4847  -3.5038   6.1825   6.8984   7.1537

          k = 0.3469 0.6009 0.0000 (  5220 PWs)   bands (ev):

   -16.8511 -16.8511 -14.4614  -4.4807  -4.4807   6.0217   7.7437   7.7437

     the Fermi energy is    -4.4807 ev

!    total energy              =     -22.78811760 Ry
     estimated scf accuracy    <          6.4E-11 Ry
     smearing contrib. (-TS)   =      -0.00005015 Ry
     internal energy E=F+TS    =     -22.78806745 Ry

     The total energy is F=E-TS. E is the sum of the following terms:
     one-electron contribution =    -365.13037815 Ry
     hartree contribution      =     183.13067843 Ry
     xc contribution           =      -6.89046897 Ry
     ewald contribution        =     166.10210124 Ry

     convergence has been achieved in  12 iterations

     Forces acting on atoms (cartesian axes, Ry/au):

     atom    1 type  1   force =    -0.00000000   -0.00000000    0.00000000
     atom    2 type  1   force =     0.00000000    0.00000000    0.00000000

     Total force =     0.000000     Total SCF correction =     0.000000


     Computing stress (Cartesian axis) and pressure

          total   stress  (Ry/bohr**3)                   (kbar)     P=      -43.41
  -0.00039986   0.00000000   0.00000000          -58.82        0.00        0.00
   0.00000000  -0.00039986  -0.00000000            0.00      -58.82       -0.00
   0.00000000   0.00000000  -0.00008559            0.00        0.00      -12.59

     Energy error            =      1.8E-02
     Gradient error          =      1.8E-26
     Cell gradient error     =      4.0E-04


     number of scf cycles    =   3
     number of bfgs steps    =   2

     enthalpy old            =     -22.7705821110 Ry
     enthalpy new            =     -22.7881175980 Ry

     CASE: enthalpy_new < enthalpy_old

     new trust radius        =       0.1818969479 bohr
     new conv_thr            =            1.0E-10 Ry

     new unit-cell volume =    755.44893 a.u.^3 (   111.94598 Ang^3 )
     density =      0.35632 g/cm^3

CELL_PARAMETERS (alat=  4.99000000)
   0.930056176  -0.000000000   0.000000000
  -0.465028088   0.805452275   0.000000000
   0.000000000   0.000000000   8.116232465

ATOMIC_POSITIONS (crystal)
C             0.3333333333        0.6666666667        0.5000000000
C             0.6666666667        0.3333333333        0.5000000000



     Writing output data file ./work/LiC499.save/
     NEW-OLD atomic charge density approx. for the potential

     negative rho (up, down):  4.881E-05 0.000E+00
     extrapolated charge    7.46274, renormalised to    8.00000

     total cpu time spent up to now is        5.7 secs

     Self-consistent Calculation

     iteration #  1     ecut=    50.00 Ry     beta= 0.70
     Davidson diagonalization with overlap
     c_bands:  1 eigenvalues not converged
     c_bands:  1 eigenvalues not converged
     c_bands:  4 eigenvalues not converged
     c_bands:  2 eigenvalues not converged
     c_bands:  1 eigenvalues not converged
     c_bands:  1 eigenvalues not converged
     c_bands:  1 eigenvalues not converged
     c_bands:  2 eigenvalues not converged
     c_bands:  1 eigenvalues not converged
     c_bands:  4 eigenvalues not converged
     c_bands:  3 eigenvalues not converged
     c_bands:  2 eigenvalues not converged
     c_bands:  2 eigenvalues not converged
     c_bands:  2 eigenvalues not converged
     c_bands:  1 eigenvalues not converged
     c_bands:  3 eigenvalues not converged
     c_bands:  2 eigenvalues not converged
     c_bands:  1 eigenvalues not converged
     c_bands:  1 eigenvalues not converged
     c_bands:  3 eigenvalues not converged
     c_bands:  3 eigenvalues not converged
     c_bands:  1 eigenvalues not converged
     c_bands:  1 eigenvalues not converged
     c_bands:  2 eigenvalues not converged
     c_bands:  1 eigenvalues not converged
     ethr =  1.00E-06,  avg # of iterations = 19.7

     negative rho (up, down):  1.302E-05 0.000E+00

     total cpu time spent up to now is        6.3 secs

     total energy              =     -22.70173010 Ry
     estimated scf accuracy    <       0.05185530 Ry

     iteration #  2     ecut=    50.00 Ry     beta= 0.70
     Davidson diagonalization with overlap
     ethr =  6.48E-04,  avg # of iterations =  9.9

     negative rho (up, down):  6.441E-06 0.000E+00

     total cpu time spent up to now is        6.6 secs

     total energy              =     -22.80102763 Ry
     estimated scf accuracy    <       0.04687057 Ry

     iteration #  3     ecut=    50.00 Ry     beta= 0.70
     Davidson diagonalization with overlap
     ethr =  5.86E-04,  avg # of iterations =  1.0

     negative rho (up, down):  1.835E-06 0.000E+00

     total cpu time spent up to now is        6.7 secs

     total energy              =     -22.79873549 Ry
     estimated scf accuracy    <       0.00982679 Ry

     iteration #  4     ecut=    50.00 Ry     beta= 0.70
     Davidson diagonalization with overlap
     ethr =  1.23E-04,  avg # of iterations =  2.6

     negative rho (up, down):  1.769E-08 0.000E+00

     total cpu time spent up to now is        6.8 secs

     total energy              =     -22.79880719 Ry
     estimated scf accuracy    <       0.00121964 Ry

     iteration #  5     ecut=    50.00 Ry     beta= 0.70
     Davidson diagonalization with overlap
     ethr =  1.52E-05,  avg # of iterations =  5.5

     total cpu time spent up to now is        7.0 secs

     total energy              =     -22.79902623 Ry
     estimated scf accuracy    <       0.00000757 Ry

     iteration #  6     ecut=    50.00 Ry     beta= 0.70
     Davidson diagonalization with overlap
     ethr =  9.47E-08,  avg # of iterations =  4.7

     total cpu time spent up to now is        7.2 secs

     total energy              =     -22.79902367 Ry
     estimated scf accuracy    <       0.00001285 Ry

     iteration #  7     ecut=    50.00 Ry     beta= 0.70
     Davidson diagonalization with overlap
     ethr =  9.47E-08,  avg # of iterations =  2.0

     total cpu time spent up to now is        7.3 secs

     total energy              =     -22.79902639 Ry
     estimated scf accuracy    <       0.00000031 Ry

     iteration #  8     ecut=    50.00 Ry     beta= 0.70
     Davidson diagonalization with overlap
     ethr =  3.90E-09,  avg # of iterations =  1.4

     total cpu time spent up to now is        7.4 secs

     total energy              =     -22.79902629 Ry
     estimated scf accuracy    <       0.00000019 Ry

     iteration #  9     ecut=    50.00 Ry     beta= 0.70
     Davidson diagonalization with overlap
     ethr =  2.36E-09,  avg # of iterations =  2.0

     total cpu time spent up to now is        7.5 secs

     total energy              =     -22.79902632 Ry
     estimated scf accuracy    <          9.1E-10 Ry

     iteration # 10     ecut=    50.00 Ry     beta= 0.70
     Davidson diagonalization with overlap
     ethr =  1.14E-11,  avg # of iterations =  3.6

     total cpu time spent up to now is        7.7 secs

     End of self-consistent calculation

          k = 0.0000 0.0000 0.0000 (  5263 PWs)   bands (ev):

   -23.8383 -11.9146  -7.3009  -7.3009  -0.9787  -0.1959   0.6005   0.9532

          k = 0.0000 0.0828 0.0000 (  5265 PWs)   bands (ev):

   -23.7328 -11.7882  -7.7252  -7.5259  -0.8351  -0.0502   0.7472   1.0992

          k = 0.0000 0.1655 0.0000 (  5249 PWs)   bands (ev):

   -23.4169 -11.4099  -8.8541  -8.0944  -0.4042   0.3865   1.1873   1.5372

          k = 0.0000 0.2483 0.0000 (  5252 PWs)   bands (ev):

   -22.8930 -10.7875 -10.4053  -8.8060   0.3135   1.1118   1.9206   2.2648

          k = 0.0000 0.3311 0.0000 (  5218 PWs)   bands (ev):

   -22.1651 -12.1418  -9.9354  -9.4981   1.3158   2.0883   2.6812   2.9449

          k = 0.0000 0.4138 0.0000 (  5194 PWs)   bands (ev):

   -21.2405 -13.9125 -10.0741  -8.8876   0.7545   2.5936   3.4527   3.6173

          k = 0.0000 0.4966 0.0000 (  5204 PWs)   bands (ev):

   -20.1352 -15.6189 -10.4809  -7.7318  -1.0164   3.3903   4.1941   5.0308

          k = 0.0000 0.5794 0.0000 (  5206 PWs)   bands (ev):

   -18.9225 -17.1421 -10.6897  -6.7627  -2.3104   3.2986   6.0071   6.8741

          k = 0.0717 0.1242 0.0000 (  5241 PWs)   bands (ev):

   -23.5221 -11.5355  -8.4498  -7.9744  -0.5478   0.2410   1.0407   1.3913

          k = 0.0717 0.2069 0.0000 (  5254 PWs)   bands (ev):

   -23.1022 -11.0351  -9.7006  -8.7064   0.0269   0.8224   1.6275   1.9746

          k = 0.0717 0.2897 0.0000 (  5249 PWs)   bands (ev):

   -22.4763 -11.2855 -10.2969  -9.4687   0.8876   1.6884   2.5074   2.8391

          k = 0.0717 0.3725 0.0000 (  5215 PWs)   bands (ev):

   -21.6499 -13.0087 -10.1337  -9.3425   1.6035   2.0310   2.8744   3.6753

          k = 0.0717 0.4552 0.0000 (  5197 PWs)   bands (ev):

   -20.6338 -14.7332 -10.6392  -8.2238  -0.2041   3.4365   3.9916   4.3043

          k = 0.0717 0.5380 0.0000 (  5195 PWs)   bands (ev):

   -19.4568 -16.3586 -10.9534  -7.0944  -1.7895   3.8025   5.1703   6.0095

          k = 0.0717 0.6208 0.0000 (  5208 PWs)   bands (ev):

   -18.4822 -17.4864 -11.0598  -6.4984  -2.5433   3.7535   7.0305   7.1872

          k = 0.1434 0.2483 0.0000 (  5259 PWs)   bands (ev):

   -22.5804 -10.8010 -10.4179  -9.6752   0.7450   1.5471   2.3614   2.7023

          k = 0.1434 0.3311 0.0000 (  5222 PWs)   bands (ev):

   -21.8560 -12.1977 -10.5856  -9.5731   1.7480   2.1586   2.5674   3.3881

          k = 0.1434 0.4138 0.0000 (  5201 PWs)   bands (ev):

   -20.9373 -13.7936 -11.2622  -8.5324   0.4705   3.0309   3.8513   4.7039

          k = 0.1434 0.4966 0.0000 (  5193 PWs)   bands (ev):

   -19.8414 -15.4125 -11.7084  -7.3751  -1.1779   4.5739   5.1549   5.3989

          k = 0.1434 0.5794 0.0000 (  5179 PWs)   bands (ev):

   -18.6444 -16.8886 -11.9311  -6.3847  -2.4322   5.0228   6.4099   7.0988

          k = 0.2150 0.3725 0.0000 (  5206 PWs)   bands (ev):

   -21.0391 -13.2100 -11.7659  -8.6371   0.7484   2.8901   3.6934   4.5611

          k = 0.2150 0.4552 0.0000 (  5198 PWs)   bands (ev):

   -20.0385 -14.4978 -12.5888  -7.5324  -0.7456   4.3057   5.0717   6.2627

          k = 0.2150 0.5380 0.0000 (  5204 PWs)   bands (ev):

   -18.8870 -15.9326 -13.0153  -6.3833  -2.1515   5.9692   6.5125   6.8092

          k = 0.2150 0.6208 0.0000 (  5198 PWs)   bands (ev):

   -17.9427 -16.9873 -13.1476  -5.7276  -2.8981   6.7289   7.1625   7.7370

          k = 0.2867 0.4966 0.0000 (  5204 PWs)   bands (ev):

   -18.9762 -15.2762 -13.7234  -6.3965  -2.0041   5.8347   6.2777   7.5777

          k = 0.2867 0.5794 0.0000 (  5192 PWs)   bands (ev):

   -17.8296 -16.3302 -14.2664  -5.3052  -3.1525   6.6350   7.5393   9.0172

          k = 0.3584 0.6208 0.0000 (  5220 PWs)   bands (ev):

   -16.8689 -16.8689 -14.8969  -4.2100  -4.2100   6.4377   8.7431   8.7431

     the Fermi energy is    -4.2100 ev

!    total energy              =     -22.79902632 Ry
     estimated scf accuracy    <          6.9E-11 Ry
     smearing contrib. (-TS)   =      -0.00005015 Ry
     internal energy E=F+TS    =     -22.79897617 Ry

     The total energy is F=E-TS. E is the sum of the following terms:
     one-electron contribution =    -389.97669532 Ry
     hartree contribution      =     195.61580552 Ry
     xc contribution           =      -7.02778389 Ry
     ewald contribution        =     178.58969752 Ry

     convergence has been achieved in  10 iterations

     Forces acting on atoms (cartesian axes, Ry/au):

     atom    1 type  1   force =     0.00000000    0.00000000    0.00000000
     atom    2 type  1   force =     0.00000000    0.00000000    0.00000000

     Total force =     0.000000     Total SCF correction =     0.000000


     Computing stress (Cartesian axis) and pressure

          total   stress  (Ry/bohr**3)                   (kbar)     P=       -4.77
  -0.00000680  -0.00000000   0.00000000           -1.00       -0.00        0.00
  -0.00000000  -0.00000680   0.00000000           -0.00       -1.00        0.00
  -0.00000000  -0.00000000  -0.00008363           -0.00       -0.00      -12.30

     Energy error            =      1.1E-02
     Gradient error          =      0.0E+00
     Cell gradient error     =      6.8E-06


     number of scf cycles    =   4
     number of bfgs steps    =   3

     enthalpy old            =     -22.7881175980 Ry
     enthalpy new            =     -22.7990263233 Ry

     CASE: enthalpy_new < enthalpy_old

     new trust radius        =       0.0030460733 bohr
     new conv_thr            =            1.0E-10 Ry

     new unit-cell volume =    754.61193 a.u.^3 (   111.82195 Ang^3 )
     density =      0.35671 g/cm^3

CELL_PARAMETERS (alat=  4.99000000)
   0.929540809  -0.000000000   0.000000000
  -0.464770404   0.805005954   0.000000000
   0.000000000   0.000000000   8.116232465

ATOMIC_POSITIONS (crystal)
C             0.3333333333        0.6666666667        0.5000000000
C             0.6666666667        0.3333333333        0.5000000000



     Writing output data file ./work/LiC499.save/
     NEW-OLD atomic charge density approx. for the potential
     extrapolated charge    7.99114, renormalised to    8.00000

     total cpu time spent up to now is        7.8 secs

     Self-consistent Calculation

     iteration #  1     ecut=    50.00 Ry     beta= 0.70
     Davidson diagonalization with overlap
     c_bands:  1 eigenvalues not converged
     c_bands:  1 eigenvalues not converged
     c_bands:  1 eigenvalues not converged
     c_bands:  1 eigenvalues not converged
     ethr =  1.00E-06,  avg # of iterations =  9.2

     total cpu time spent up to now is        8.0 secs

     total energy              =     -22.79898316 Ry
     estimated scf accuracy    <       0.00002347 Ry

     iteration #  2     ecut=    50.00 Ry     beta= 0.70
     Davidson diagonalization with overlap
     c_bands:  1 eigenvalues not converged
     ethr =  2.93E-07,  avg # of iterations =  8.0

     total cpu time spent up to now is        8.2 secs

     total energy              =     -22.79903023 Ry
     estimated scf accuracy    <       0.00002183 Ry

     iteration #  3     ecut=    50.00 Ry     beta= 0.70
     Davidson diagonalization with overlap
     ethr =  2.73E-07,  avg # of iterations =  1.0

     total cpu time spent up to now is        8.3 secs

     total energy              =     -22.79902888 Ry
     estimated scf accuracy    <       0.00000507 Ry

     iteration #  4     ecut=    50.00 Ry     beta= 0.70
     Davidson diagonalization with overlap
     ethr =  6.34E-08,  avg # of iterations =  1.5

     total cpu time spent up to now is        8.4 secs

     total energy              =     -22.79902921 Ry
     estimated scf accuracy    <       0.00000087 Ry

     iteration #  5     ecut=    50.00 Ry     beta= 0.70
     Davidson diagonalization with overlap
     ethr =  1.09E-08,  avg # of iterations =  1.0

     total cpu time spent up to now is        8.5 secs

     total energy              =     -22.79902882 Ry
     estimated scf accuracy    <       0.00000089 Ry

     iteration #  6     ecut=    50.00 Ry     beta= 0.70
     Davidson diagonalization with overlap
     ethr =  1.09E-08,  avg # of iterations =  1.0

     total cpu time spent up to now is        8.7 secs

     total energy              =     -22.79902879 Ry
     estimated scf accuracy    <       0.00000014 Ry

     iteration #  7     ecut=    50.00 Ry     beta= 0.70
     Davidson diagonalization with overlap
     ethr =  1.77E-09,  avg # of iterations =  2.0

     total cpu time spent up to now is        8.8 secs

     total energy              =     -22.79902881 Ry
     estimated scf accuracy    <          1.2E-09 Ry

     iteration #  8     ecut=    50.00 Ry     beta= 0.70
     Davidson diagonalization with overlap
     ethr =  1.52E-11,  avg # of iterations =  3.2

     total cpu time spent up to now is        8.9 secs

     total energy              =     -22.79902881 Ry
     estimated scf accuracy    <          2.5E-10 Ry

     iteration #  9     ecut=    50.00 Ry     beta= 0.70
     Davidson diagonalization with overlap
     ethr =  3.08E-12,  avg # of iterations =  1.1

     total cpu time spent up to now is        9.0 secs

     total energy              =     -22.79902881 Ry
     estimated scf accuracy    <          2.4E-10 Ry

     iteration # 10     ecut=    50.00 Ry     beta= 0.70
     Davidson diagonalization with overlap
     ethr =  2.99E-12,  avg # of iterations =  1.0

     total cpu time spent up to now is        9.1 secs

     total energy              =     -22.79902881 Ry
     estimated scf accuracy    <          2.2E-10 Ry

     iteration # 11     ecut=    50.00 Ry     beta= 0.70
     Davidson diagonalization with overlap
     ethr =  2.72E-12,  avg # of iterations =  1.0

     total cpu time spent up to now is        9.3 secs

     End of self-consistent calculation

          k = 0.0000 0.0000 0.0000 (  5263 PWs)   bands (ev):

   -23.8468 -11.9211  -7.2957  -7.2957  -0.9790  -0.1959   0.6005   0.9532

          k = 0.0000 0.0828 0.0000 (  5265 PWs)   bands (ev):

   -23.7412 -11.7946  -7.7202  -7.5211  -0.8353  -0.0500   0.7474   1.0994

          k = 0.0000 0.1656 0.0000 (  5249 PWs)   bands (ev):

   -23.4250 -11.4157  -8.8499  -8.0905  -0.4039   0.3872   1.1880   1.5379

          k = 0.0000 0.2484 0.0000 (  5252 PWs)   bands (ev):

   -22.9006 -10.7925 -10.4022  -8.8033   0.3146   1.1133   1.9221   2.2662

          k = 0.0000 0.3313 0.0000 (  5218 PWs)   bands (ev):

   -22.1720 -12.1402  -9.9392  -9.4963   1.3180   2.0917   2.6949   2.9475

          k = 0.0000 0.4141 0.0000 (  5194 PWs)   bands (ev):

   -21.2465 -13.9127 -10.0732  -8.8899   0.7659   2.5974   3.4570   3.6374

          k = 0.0000 0.4969 0.0000 (  5204 PWs)   bands (ev):

   -20.1398 -15.6208 -10.4806  -7.7323  -1.0081   3.4109   4.2001   5.0369

          k = 0.0000 0.5797 0.0000 (  5206 PWs)   bands (ev):

   -18.9251 -17.1463 -10.6897  -6.7615  -2.3044   3.3199   6.0146   6.8825

          k = 0.0717 0.1242 0.0000 (  5241 PWs)   bands (ev):

   -23.5303 -11.5415  -8.4452  -7.9703  -0.5476   0.2415   1.0411   1.3918

          k = 0.0717 0.2070 0.0000 (  5254 PWs)   bands (ev):

   -23.1100 -11.0404  -9.6968  -8.7035   0.0277   0.8236   1.6287   1.9757

          k = 0.0717 0.2899 0.0000 (  5249 PWs)   bands (ev):

   -22.4835 -11.2831 -10.3012  -9.4668   0.8893   1.6906   2.5095   2.8414

          k = 0.0717 0.3727 0.0000 (  5215 PWs)   bands (ev):

   -21.6563 -13.0079 -10.1328  -9.3454   1.6164   2.0340   2.8781   3.6785

          k = 0.0717 0.4555 0.0000 (  5197 PWs)   bands (ev):

   -20.6391 -14.7341 -10.6389  -8.2251  -0.1942   3.4416   4.0121   4.3096

          k = 0.0717 0.5383 0.0000 (  5195 PWs)   bands (ev):

   -19.4605 -16.3614 -10.9535  -7.0938  -1.7825   3.8239   5.1770   6.0168

          k = 0.0717 0.6211 0.0000 (  5208 PWs)   bands (ev):

   -18.4831 -17.4922 -11.0601  -6.4968  -2.5376   3.7752   7.0394   7.1959

          k = 0.1434 0.2484 0.0000 (  5259 PWs)   bands (ev):

   -22.5877 -10.7978 -10.4223  -9.6738   0.7466   1.5491   2.3634   2.7042

          k = 0.1434 0.3313 0.0000 (  5222 PWs)   bands (ev):

   -21.8626 -12.1956 -10.5853  -9.5763   1.7507   2.1727   2.5708   3.3912

          k = 0.1434 0.4141 0.0000 (  5201 PWs)   bands (ev):

   -20.9429 -13.7932 -11.2626  -8.5342   0.4819   3.0350   3.8560   4.7081

          k = 0.1434 0.4969 0.0000 (  5193 PWs)   bands (ev):

   -19.8458 -15.4139 -11.7092  -7.3751  -1.1694   4.5802   5.1767   5.4056

          k = 0.1434 0.5797 0.0000 (  5179 PWs)   bands (ev):

   -18.6467 -16.8924 -11.9321  -6.3830  -2.4259   5.0452   6.4180   7.1079

          k = 0.2152 0.3727 0.0000 (  5206 PWs)   bands (ev):

   -21.0448 -13.2082 -11.7676  -8.6390   0.7606   2.8941   3.6980   4.5655

          k = 0.2152 0.4555 0.0000 (  5198 PWs)   bands (ev):

   -20.0432 -14.4973 -12.5912  -7.5327  -0.7358   4.3112   5.0779   6.0290

          k = 0.2152 0.5383 0.0000 (  5204 PWs)   bands (ev):

   -18.8901 -15.9342 -13.0178  -6.3818  -2.1441   5.9770   6.5208   6.8324

          k = 0.2152 0.6211 0.0000 (  5198 PWs)   bands (ev):

   -17.9434 -16.9916 -13.1502  -5.7250  -2.8920   6.7525   7.1719   7.7472

          k = 0.2869 0.4969 0.0000 (  5204 PWs)   bands (ev):

   -18.9796 -15.2755 -13.7280  -6.3951  -1.9962   5.8421   6.2857   7.5857

          k = 0.2869 0.5797 0.0000 (  5192 PWs)   bands (ev):

   -17.8312 -16.3312 -14.2715  -5.3020  -3.1463   6.6430   7.5488   8.4910

          k = 0.3586 0.6211 0.0000 (  5220 PWs)   bands (ev):

   -16.8690 -16.8690 -14.9045  -4.2052  -4.2052   6.4450   8.7591   8.7591

     the Fermi energy is    -4.2052 ev

!    total energy              =     -22.79902881 Ry
     estimated scf accuracy    <          8.1E-11 Ry
     smearing contrib. (-TS)   =      -0.00005015 Ry
     internal energy E=F+TS    =     -22.79897866 Ry

     The total energy is F=E-TS. E is the sum of the following terms:
     one-electron contribution =    -390.41437631 Ry
     hartree contribution      =     195.83577459 Ry
     xc contribution           =      -7.03017639 Ry
     ewald contribution        =     178.80979944 Ry

     convergence has been achieved in  11 iterations

     Forces acting on atoms (cartesian axes, Ry/au):

     atom    1 type  1   force =    -0.00000000   -0.00000000    0.00000000
     atom    2 type  1   force =     0.00000000    0.00000000    0.00000000

     Total force =     0.000000     Total SCF correction =     0.000000


     Computing stress (Cartesian axis) and pressure

          total   stress  (Ry/bohr**3)                   (kbar)     P=       -4.01
   0.00000086   0.00000000   0.00000000            0.13        0.00        0.00
   0.00000000   0.00000086   0.00000000            0.00        0.13        0.00
   0.00000000   0.00000000  -0.00008359            0.00        0.00      -12.30

     Energy error            =      2.5E-06
     Gradient error          =      1.9E-26
     Cell gradient error     =      8.6E-07


     number of scf cycles    =   5
     number of bfgs steps    =   4

     enthalpy old            =     -22.7990263233 Ry
     enthalpy new            =     -22.7990288143 Ry

     CASE: enthalpy_new < enthalpy_old

     new trust radius        =       0.0003422419 bohr
     new conv_thr            =            1.0E-10 Ry

     new unit-cell volume =    754.70595 a.u.^3 (   111.83588 Ang^3 )
     density =      0.35667 g/cm^3

CELL_PARAMETERS (alat=  4.99000000)
   0.929598713  -0.000000000   0.000000000
  -0.464799356   0.805056101   0.000000000
   0.000000000   0.000000000   8.116232465

ATOMIC_POSITIONS (crystal)
C             0.3333333333        0.6666666667        0.5000000000
C             0.6666666667        0.3333333333        0.5000000000



     Writing output data file ./work/LiC499.save/
     NEW-OLD atomic charge density approx. for the potential
     extrapolated charge    8.00099, renormalised to    8.00000

     total cpu time spent up to now is        9.3 secs

     Self-consistent Calculation

     iteration #  1     ecut=    50.00 Ry     beta= 0.70
     Davidson diagonalization with overlap
     ethr =  1.00E-06,  avg # of iterations =  1.9

     Threshold (ethr) on eigenvalues was too large:
     Diagonalizing with lowered threshold

     Davidson diagonalization with overlap
     ethr =  3.39E-09,  avg # of iterations =  1.1

     total cpu time spent up to now is        9.6 secs

     total energy              =     -22.79902829 Ry
     estimated scf accuracy    <       0.00000029 Ry

     iteration #  2     ecut=    50.00 Ry     beta= 0.70
     Davidson diagonalization with overlap
     ethr =  3.67E-09,  avg # of iterations =  3.0

     total cpu time spent up to now is        9.7 secs

     total energy              =     -22.79902888 Ry
     estimated scf accuracy    <       0.00000028 Ry

     iteration #  3     ecut=    50.00 Ry     beta= 0.70
     Davidson diagonalization with overlap
     ethr =  3.46E-09,  avg # of iterations =  1.0

     total cpu time spent up to now is        9.8 secs

     total energy              =     -22.79902886 Ry
     estimated scf accuracy    <       0.00000006 Ry

     iteration #  4     ecut=    50.00 Ry     beta= 0.70
     Davidson diagonalization with overlap
     ethr =  8.06E-10,  avg # of iterations =  1.9

     total cpu time spent up to now is        9.9 secs

     total energy              =     -22.79902886 Ry
     estimated scf accuracy    <          9.3E-09 Ry

     iteration #  5     ecut=    50.00 Ry     beta= 0.70
     Davidson diagonalization with overlap
     ethr =  1.16E-10,  avg # of iterations =  1.0

     total cpu time spent up to now is       10.0 secs

     total energy              =     -22.79902886 Ry
     estimated scf accuracy    <       0.00000001 Ry

     iteration #  6     ecut=    50.00 Ry     beta= 0.70
     Davidson diagonalization with overlap
     ethr =  1.16E-10,  avg # of iterations =  1.0

     total cpu time spent up to now is       10.1 secs

     total energy              =     -22.79902885 Ry
     estimated scf accuracy    <          3.8E-09 Ry

     iteration #  7     ecut=    50.00 Ry     beta= 0.70
     Davidson diagonalization with overlap
     ethr =  4.73E-11,  avg # of iterations =  2.0

     total cpu time spent up to now is       10.3 secs

     End of self-consistent calculation

          k = 0.0000 0.0000 0.0000 (  5263 PWs)   bands (ev):

   -23.8459 -11.9204  -7.2963  -7.2963  -0.9790  -0.1958   0.6006   0.9532

          k = 0.0000 0.0828 0.0000 (  5265 PWs)   bands (ev):

   -23.7403 -11.7939  -7.7209  -7.5217  -0.8352  -0.0500   0.7474   1.0994

          k = 0.0000 0.1656 0.0000 (  5249 PWs)   bands (ev):

   -23.4242 -11.4151  -8.8504  -8.0910  -0.4039   0.3871   1.1879   1.5378

          k = 0.0000 0.2484 0.0000 (  5252 PWs)   bands (ev):

   -22.8998 -10.7920 -10.4026  -8.8036   0.3145   1.1132   1.9219   2.2661

          k = 0.0000 0.3312 0.0000 (  5218 PWs)   bands (ev):

   -22.1712 -12.1405  -9.9388  -9.4966   1.3178   2.0913   2.6934   2.9472

          k = 0.0000 0.4140 0.0000 (  5194 PWs)   bands (ev):

   -21.2458 -13.9127 -10.0734  -8.8896   0.7646   2.5970   3.4566   3.6351

          k = 0.0000 0.4969 0.0000 (  5204 PWs)   bands (ev):

   -20.1394 -15.6206 -10.4807  -7.7323  -1.0091   3.4085   4.1994   5.0363

          k = 0.0000 0.5797 0.0000 (  5206 PWs)   bands (ev):

   -18.9248 -17.1459 -10.6898  -6.7617  -2.3051   3.3175   6.0138   6.8816

          k = 0.0717 0.1242 0.0000 (  5241 PWs)   bands (ev):

   -23.5294 -11.5409  -8.4458  -7.9709  -0.5476   0.2415   1.0411   1.3918

          k = 0.0717 0.2070 0.0000 (  5254 PWs)   bands (ev):

   -23.1092 -11.0398  -9.6973  -8.7039   0.0276   0.8235   1.6286   1.9756

          k = 0.0717 0.2898 0.0000 (  5249 PWs)   bands (ev):

   -22.4828 -11.2834 -10.3008  -9.4671   0.8892   1.6904   2.5093   2.8411

          k = 0.0717 0.3726 0.0000 (  5215 PWs)   bands (ev):

   -21.6556 -13.0080 -10.1329  -9.3451   1.6149   2.0337   2.8778   3.6780

          k = 0.0717 0.4555 0.0000 (  5197 PWs)   bands (ev):

   -20.6386 -14.7340 -10.6390  -8.2250  -0.1954   3.4411   4.0098   4.3091

          k = 0.0717 0.5383 0.0000 (  5195 PWs)   bands (ev):

   -19.4602 -16.3611 -10.9536  -7.0939  -1.7833   3.8215   5.1763   6.0161

          k = 0.0717 0.6211 0.0000 (  5208 PWs)   bands (ev):

   -18.4830 -17.4916 -11.0601  -6.4970  -2.5383   3.7727   7.0384   7.1950

          k = 0.1434 0.2484 0.0000 (  5259 PWs)   bands (ev):

   -22.5869 -10.7982 -10.4219  -9.6740   0.7465   1.5489   2.3631   2.7040

          k = 0.1434 0.3312 0.0000 (  5222 PWs)   bands (ev):

   -21.8619 -12.1959 -10.5854  -9.5760   1.7504   2.1711   2.5705   3.3909

          k = 0.1434 0.4140 0.0000 (  5201 PWs)   bands (ev):

   -20.9423 -13.7933 -11.2626  -8.5340   0.4806   3.0345   3.8555   4.7075

          k = 0.1434 0.4969 0.0000 (  5193 PWs)   bands (ev):

   -19.8454 -15.4138 -11.7092  -7.3751  -1.1704   4.5796   5.1742   5.4049

          k = 0.1434 0.5797 0.0000 (  5179 PWs)   bands (ev):

   -18.6465 -16.8920 -11.9321  -6.3832  -2.4267   5.0426   6.4171   7.1069

          k = 0.2151 0.3726 0.0000 (  5206 PWs)   bands (ev):

   -21.0442 -13.2084 -11.7674  -8.6388   0.7592   2.8937   3.6975   4.5651

          k = 0.2151 0.4555 0.0000 (  5198 PWs)   bands (ev):

   -20.0427 -14.4975 -12.5909  -7.5327  -0.7370   4.3106   5.0773   6.0283

          k = 0.2151 0.5383 0.0000 (  5204 PWs)   bands (ev):

   -18.8898 -15.9340 -13.0175  -6.3820  -2.1450   5.9761   6.5199   6.8298

          k = 0.2151 0.6211 0.0000 (  5198 PWs)   bands (ev):

   -17.9433 -16.9912 -13.1499  -5.7253  -2.8927   6.7498   7.1708   7.7461

          k = 0.2869 0.4969 0.0000 (  5204 PWs)   bands (ev):

   -18.9793 -15.2756 -13.7275  -6.3953  -1.9971   5.8413   6.2848   7.5848

          k = 0.2869 0.5797 0.0000 (  5192 PWs)   bands (ev):

   -17.8310 -16.3311 -14.2710  -5.3024  -3.1471   6.6421   7.5477   8.4883

          k = 0.3586 0.6211 0.0000 (  5220 PWs)   bands (ev):

   -16.8690 -16.8690 -14.9037  -4.2058  -4.2058   6.4442   8.7572   8.7572

     the Fermi energy is    -4.2058 ev

!    total energy              =     -22.79902886 Ry
     estimated scf accuracy    <          2.7E-11 Ry
     smearing contrib. (-TS)   =      -0.00005015 Ry
     internal energy E=F+TS    =     -22.79897870 Ry

     The total energy is F=E-TS. E is the sum of the following terms:
     one-electron contribution =    -390.36519704 Ry
     hartree contribution      =     195.81107955 Ry
     xc contribution           =      -7.02991223 Ry
     ewald contribution        =     178.78505100 Ry

     convergence has been achieved in   7 iterations

     Forces acting on atoms (cartesian axes, Ry/au):

     atom    1 type  1   force =     0.00000000    0.00000000    0.00000000
     atom    2 type  1   force =     0.00000000    0.00000000    0.00000000

     Total force =     0.000000     Total SCF correction =     0.000000


     Computing stress (Cartesian axis) and pressure

          total   stress  (Ry/bohr**3)                   (kbar)     P=       -4.10
   0.00000000   0.00000000   0.00000000            0.00        0.00        0.00
   0.00000000   0.00000000   0.00000000            0.00        0.00        0.00
   0.00000000   0.00000000  -0.00008356            0.00        0.00      -12.29

     Energy error            =      4.1E-08
     Gradient error          =      0.0E+00
     Cell gradient error     =      4.0E-09


     bfgs converged in   6 scf cycles and   5 bfgs steps
     (criteria: energy <  1.0E-04 Ry, force <  1.0E-08Ry/Bohr, cell <  1.0E-03kbar)

     End of BFGS Geometry Optimization

     Final enthalpy =     -22.7990288550 Ry

     File ./work/LiC499.bfgs deleted, as requested
Begin final coordinates
     new unit-cell volume =    754.70595 a.u.^3 (   111.83588 Ang^3 )
     density =      0.35667 g/cm^3

CELL_PARAMETERS (alat=  4.99000000)
   0.929598713  -0.000000000   0.000000000
  -0.464799356   0.805056101   0.000000000
   0.000000000   0.000000000   8.116232465

ATOMIC_POSITIONS (crystal)
C             0.3333333333        0.6666666667        0.5000000000
C             0.6666666667        0.3333333333        0.5000000000
End final coordinates



     Writing output data file ./work/LiC499.save/

     Final scf calculation at the relaxed structure.
     The G-vectors are recalculated for the final unit cell
     Results may differ from those at the preceding step.
 
     Parallelization info
     --------------------
     sticks:   dense  smooth     PW     G-vecs:    dense   smooth      PW
     Min           9       9      2                 1117     1117     170
     Max          10      10      3                 1146     1146     215
     Sum         301     301     91                36087    36087    6409
 


     bravais-lattice index     =            4
     lattice parameter (alat)  =       4.9900  a.u.
     unit-cell volume          =     754.7059 (a.u.)^3
     number of atoms/cell      =            2
     number of atomic types    =            1
     number of electrons       =         8.00
     number of Kohn-Sham states=            8
     kinetic-energy cutoff     =      50.0000  Ry
     charge density cutoff     =     200.0000  Ry
     scf convergence threshold =      1.0E-10
     mixing beta               =       0.7000
     number of iterations used =            8  plain     mixing
     press convergence thresh. =      1.0E-03
     Exchange-correlation= PBE
                           (   1   4   3   4   0   0   0)

     celldm(1)=   4.990000  celldm(2)=   0.000000  celldm(3)=   8.116232
     celldm(4)=   0.000000  celldm(5)=   0.000000  celldm(6)=   0.000000

     crystal axes: (cart. coord. in units of alat)
               a(1) = (   0.929599  -0.000000   0.000000 )  
               a(2) = (  -0.464799   0.805056   0.000000 )  
               a(3) = (   0.000000   0.000000   8.116232 )  

     reciprocal axes: (cart. coord. in units 2 pi/alat)
               b(1) = (  1.075733  0.621075  0.000000 )  
               b(2) = (  0.000000  1.242149  0.000000 )  
               b(3) = (  0.000000  0.000000  0.123210 )  


     PseudoPot. # 1 for C  read from file:
     /home/yhkim/qe-6.7/pseudo/ONCV1/1.2/C_ONCV_PBE-1.2.upf
     MD5 check sum: 1a5f83a7b1f58d24996abe00ed223ac6
     Pseudo is Norm-conserving, Zval =  4.0
     Generated using ONCVPSP code by D. R. Hamann
     Using radial grid of  602 points,  4 beta functions with: 
                l(1) =   0
                l(2) =   0
                l(3) =   1
                l(4) =   1

     atomic species   valence    mass     pseudopotential
        C              4.00    12.01070     C ( 1.00)

     24 Sym. Ops., with inversion, found



   Cartesian axes

     site n.     atom                  positions (alat units)
         1           C   tau(   1) = (  -0.0000000   0.5367041   4.0581162  )
         2           C   tau(   2) = (   0.4647994   0.2683520   4.0581162  )

     number of k points=    27  Methfessel-Paxton smearing, width (Ry)=  0.0100
                       cart. coord. in units 2pi/alat
        k(    1) = (   0.0000000   0.0000000   0.0000000), wk =   0.0088889
        k(    2) = (   0.0000000   0.0828100   0.0000000), wk =   0.0533333
        k(    3) = (   0.0000000   0.1656199   0.0000000), wk =   0.0533333
        k(    4) = (   0.0000000   0.2484299   0.0000000), wk =   0.0533333
        k(    5) = (   0.0000000   0.3312399   0.0000000), wk =   0.0533333
        k(    6) = (   0.0000000   0.4140498   0.0000000), wk =   0.0533333
        k(    7) = (   0.0000000   0.4968598   0.0000000), wk =   0.0533333
        k(    8) = (   0.0000000   0.5796697   0.0000000), wk =   0.0533333
        k(    9) = (   0.0717155   0.1242149   0.0000000), wk =   0.0533333
        k(   10) = (   0.0717155   0.2070249   0.0000000), wk =   0.1066667
        k(   11) = (   0.0717155   0.2898349   0.0000000), wk =   0.1066667
        k(   12) = (   0.0717155   0.3726448   0.0000000), wk =   0.1066667
        k(   13) = (   0.0717155   0.4554548   0.0000000), wk =   0.1066667
        k(   14) = (   0.0717155   0.5382648   0.0000000), wk =   0.1066667
        k(   15) = (   0.0717155   0.6210747   0.0000000), wk =   0.0533333
        k(   16) = (   0.1434311   0.2484299   0.0000000), wk =   0.0533333
        k(   17) = (   0.1434311   0.3312399   0.0000000), wk =   0.1066667
        k(   18) = (   0.1434311   0.4140498   0.0000000), wk =   0.1066667
        k(   19) = (   0.1434311   0.4968598   0.0000000), wk =   0.1066667
        k(   20) = (   0.1434311   0.5796697   0.0000000), wk =   0.1066667
        k(   21) = (   0.2151466   0.3726448   0.0000000), wk =   0.0533333
        k(   22) = (   0.2151466   0.4554548   0.0000000), wk =   0.1066667
        k(   23) = (   0.2151466   0.5382648   0.0000000), wk =   0.1066667
        k(   24) = (   0.2151466   0.6210747   0.0000000), wk =   0.0533333
        k(   25) = (   0.2868621   0.4968598   0.0000000), wk =   0.0533333
        k(   26) = (   0.2868621   0.5796697   0.0000000), wk =   0.1066667
        k(   27) = (   0.3585777   0.6210747   0.0000000), wk =   0.0177778

     Dense  grid:    36087 G-vectors     FFT dimensions: (  24,  24, 192)

     Estimated max dynamical RAM per process >       1.96 MB

     Estimated total dynamical RAM >      62.63 MB
 ----2D----2D----2D----2D----2D----2D----2D----2D----2D----2D----2D----2D
  The code is running with the 2D cutoff
  Please refer to:
  Sohier, T., Calandra, M., & Mauri, F. (2017), 
  Density functional perturbation theory for gated two-dimensional heterostructu
 res:
  Theoretical developments and application to flexural phonons in graphene.
  Physical Review B, 96(7), 75448. https://doi.org/10.1103/PhysRevB.96.075448
 ----2D----2D----2D----2D----2D----2D----2D----2D----2D----2D----2D----2D

     Initial potential from superposition of free atoms

     starting charge    7.98607, renormalised to    8.00000

     negative rho (up, down):  1.169E-04 0.000E+00
     Starting wfcs are random

     total cpu time spent up to now is       10.4 secs

     Self-consistent Calculation

     iteration #  1     ecut=    50.00 Ry     beta= 0.70
     Davidson diagonalization with overlap
     c_bands:  5 eigenvalues not converged
     c_bands:  3 eigenvalues not converged
     c_bands:  3 eigenvalues not converged
     c_bands:  5 eigenvalues not converged
     c_bands:  4 eigenvalues not converged
     c_bands:  4 eigenvalues not converged
     c_bands:  3 eigenvalues not converged
     c_bands:  2 eigenvalues not converged
     c_bands:  5 eigenvalues not converged
     c_bands:  5 eigenvalues not converged
     c_bands:  4 eigenvalues not converged
     c_bands:  4 eigenvalues not converged
     c_bands:  3 eigenvalues not converged
     c_bands:  4 eigenvalues not converged
     c_bands:  2 eigenvalues not converged
     c_bands:  4 eigenvalues not converged
     c_bands:  4 eigenvalues not converged
     c_bands:  4 eigenvalues not converged
     c_bands:  3 eigenvalues not converged
     c_bands:  3 eigenvalues not converged
     c_bands:  4 eigenvalues not converged
     c_bands:  3 eigenvalues not converged
     c_bands:  3 eigenvalues not converged
     c_bands:  3 eigenvalues not converged
     c_bands:  3 eigenvalues not converged
     c_bands:  3 eigenvalues not converged
     c_bands:  3 eigenvalues not converged
     ethr =  1.00E-06,  avg # of iterations = 21.5

     negative rho (up, down):  2.330E-05 0.000E+00

     total cpu time spent up to now is       11.1 secs

     total energy              =     -22.76053471 Ry
     estimated scf accuracy    <       0.19791722 Ry

     iteration #  2     ecut=    50.00 Ry     beta= 0.70
     Davidson diagonalization with overlap
     ethr =  2.47E-03,  avg # of iterations =  2.3

     negative rho (up, down):  2.933E-06 0.000E+00

     total cpu time spent up to now is       11.2 secs

     total energy              =     -22.79033620 Ry
     estimated scf accuracy    <       0.00233627 Ry

     iteration #  3     ecut=    50.00 Ry     beta= 0.70
     Davidson diagonalization with overlap
     c_bands:  1 eigenvalues not converged
     ethr =  2.92E-05,  avg # of iterations =  8.9

     total cpu time spent up to now is       11.5 secs

     total energy              =     -22.79072585 Ry
     estimated scf accuracy    <       0.00017293 Ry

     iteration #  4     ecut=    50.00 Ry     beta= 0.70
     Davidson diagonalization with overlap
     ethr =  2.16E-06,  avg # of iterations =  5.5

     total cpu time spent up to now is       11.6 secs

     total energy              =     -22.79073993 Ry
     estimated scf accuracy    <       0.00000113 Ry

     iteration #  5     ecut=    50.00 Ry     beta= 0.70
     Davidson diagonalization with overlap
     ethr =  1.42E-08,  avg # of iterations =  3.9

     total cpu time spent up to now is       11.7 secs

     total energy              =     -22.79074131 Ry
     estimated scf accuracy    <       0.00000004 Ry

     iteration #  6     ecut=    50.00 Ry     beta= 0.70
     Davidson diagonalization with overlap
     ethr =  4.56E-10,  avg # of iterations =  2.4

     total cpu time spent up to now is       11.8 secs

     total energy              =     -22.79074132 Ry
     estimated scf accuracy    <          8.2E-10 Ry

     iteration #  7     ecut=    50.00 Ry     beta= 0.70
     Davidson diagonalization with overlap
     ethr =  1.03E-11,  avg # of iterations =  3.3

     total cpu time spent up to now is       12.0 secs

     End of self-consistent calculation

          k = 0.0000 0.0000 0.0000 (  4483 PWs)   bands (ev):

   -23.8595 -11.9252  -7.2848  -7.2848  -0.9826  -0.2035   0.5841   0.9392

          k = 0.0000 0.0828 0.0000 (  4471 PWs)   bands (ev):

   -23.7537 -11.7973  -7.7084  -7.5078  -0.8388  -0.0575   0.7310   1.0855

          k = 0.0000 0.1656 0.0000 (  4501 PWs)   bands (ev):

   -23.4374 -11.4186  -8.8404  -8.0778  -0.4073   0.3797   1.1715   1.5239

          k = 0.0000 0.2484 0.0000 (  4479 PWs)   bands (ev):

   -22.9127 -10.7952 -10.3908  -8.7891   0.3113   1.1059   1.9056   2.2521

          k = 0.0000 0.3312 0.0000 (  4515 PWs)   bands (ev):

   -22.1838 -12.1366  -9.9420  -9.4854   1.3148   2.0856   2.6982   2.9311

          k = 0.0000 0.4140 0.0000 (  4527 PWs)   bands (ev):

   -21.2581 -13.9147 -10.0632  -8.8919   0.7681   2.5945   3.4499   3.6298

          k = 0.0000 0.4969 0.0000 (  4541 PWs)   bands (ev):

   -20.1511 -15.6261 -10.4723  -7.7335  -1.0060   3.4008   4.1961   5.0302

          k = 0.0000 0.5797 0.0000 (  4535 PWs)   bands (ev):

   -18.9359 -17.1529 -10.6818  -6.7629  -2.3044   3.3080   6.0119   6.8765

          k = 0.0717 0.1242 0.0000 (  4503 PWs)   bands (ev):

   -23.5427 -11.5442  -8.4348  -7.9598  -0.5511   0.2341   1.0247   1.3779

          k = 0.0717 0.2070 0.0000 (  4500 PWs)   bands (ev):

   -23.1223 -11.0428  -9.6855  -8.6926   0.0243   0.8162   1.6123   1.9617

          k = 0.0717 0.2898 0.0000 (  4495 PWs)   bands (ev):

   -22.4954 -11.2764 -10.3031  -9.4551   0.8860   1.6835   2.4931   2.8275

          k = 0.0717 0.3726 0.0000 (  4506 PWs)   bands (ev):

   -21.6681 -13.0068 -10.1217  -9.3474   1.6213   2.0308   2.8711   3.6622

          k = 0.0717 0.4555 0.0000 (  4518 PWs)   bands (ev):

   -20.6504 -14.7374 -10.6303  -8.2268  -0.1917   3.4391   4.0048   4.3027

          k = 0.0717 0.5383 0.0000 (  4529 PWs)   bands (ev):

   -19.4715 -16.3673 -10.9454  -7.0957  -1.7812   3.8152   5.1737   6.0106

          k = 0.0717 0.6211 0.0000 (  4530 PWs)   bands (ev):

   -18.4947 -17.4981 -11.0520  -6.4981  -2.5374   3.7657   7.0375   7.1939

          k = 0.1434 0.2484 0.0000 (  4497 PWs)   bands (ev):

   -22.5997 -10.7903 -10.4244  -9.6643   0.7433   1.5419   2.3468   2.6903

          k = 0.1434 0.3312 0.0000 (  4491 PWs)   bands (ev):

   -21.8744 -12.1919 -10.5761  -9.5783   1.7474   2.1793   2.5639   3.3748

          k = 0.1434 0.4140 0.0000 (  4513 PWs)   bands (ev):

   -20.9544 -13.7943 -11.2558  -8.5362   0.4837   3.0319   3.8493   4.6916

          k = 0.1434 0.4969 0.0000 (  4519 PWs)   bands (ev):

   -19.8569 -15.4182 -11.7032  -7.3780  -1.1686   4.5780   5.1743   5.3994

          k = 0.1434 0.5797 0.0000 (  4509 PWs)   bands (ev):

   -18.6574 -16.8986 -11.9267  -6.3850  -2.4250   5.0422   6.4156   7.1039

          k = 0.2151 0.3726 0.0000 (  4495 PWs)   bands (ev):

   -21.0564 -13.2075 -11.7607  -8.6413   0.7637   2.8909   3.6912   4.5488

          k = 0.2151 0.4555 0.0000 (  4501 PWs)   bands (ev):

   -20.0543 -14.5002 -12.5856  -7.5344  -0.7335   4.3084   5.0721   6.0130

          k = 0.2151 0.5383 0.0000 (  4501 PWs)   bands (ev):

   -18.9003 -15.9394 -13.0129  -6.3834  -2.1427   5.9754   6.5172   6.8398

          k = 0.2151 0.6211 0.0000 (  4506 PWs)   bands (ev):

   -17.9539 -16.9971 -13.1467  -5.7250  -2.8917   6.7589   7.1691   7.7486

          k = 0.2869 0.4969 0.0000 (  4487 PWs)   bands (ev):

   -18.9899 -15.2801 -13.7238  -6.3955  -1.9953   5.8401   6.2821   7.5729

          k = 0.2869 0.5797 0.0000 (  4494 PWs)   bands (ev):

   -17.8405 -16.3376 -14.2688  -5.3019  -3.1463   6.6392   7.5497   8.5067

          k = 0.3586 0.6211 0.0000 (  4485 PWs)   bands (ev):

   -16.8769 -16.8769 -14.9014  -4.2033  -4.2033   6.4405   8.7718   8.7718

     the Fermi energy is    -4.2033 ev

!    total energy              =     -22.79074132 Ry
     estimated scf accuracy    <          1.1E-11 Ry
     smearing contrib. (-TS)   =      -0.00005015 Ry
     internal energy E=F+TS    =     -22.79069117 Ry

     The total energy is F=E-TS. E is the sum of the following terms:
     one-electron contribution =    -390.34795539 Ry
     hartree contribution      =     195.80164384 Ry
     xc contribution           =      -7.02943059 Ry
     ewald contribution        =     178.78505098 Ry

     convergence has been achieved in   7 iterations

     Forces acting on atoms (cartesian axes, Ry/au):

     atom    1 type  1   force =    -0.00000000   -0.00000000    0.00000000
     atom    2 type  1   force =     0.00000000    0.00000000    0.00000000

     Total force =     0.000000     Total SCF correction =     0.000000


     Computing stress (Cartesian axis) and pressure

          total   stress  (Ry/bohr**3)                   (kbar)     P=       -9.94
  -0.00004694  -0.00000000   0.00000000           -6.91       -0.00        0.00
  -0.00000000  -0.00004694   0.00000000           -0.00       -6.91        0.00
   0.00000000   0.00000000  -0.00010888            0.00        0.00      -16.02


     Writing output data file ./work/LiC499.save/
 
     init_run     :      0.12s CPU      0.15s WALL (       2 calls)
     electrons    :     10.52s CPU     11.46s WALL (       7 calls)
     update_pot   :      0.07s CPU      0.08s WALL (       5 calls)
     forces       :      0.06s CPU      0.07s WALL (       7 calls)
     stress       :      0.16s CPU      0.18s WALL (       7 calls)

     Called by init_run:
     wfcinit      :      0.09s CPU      0.10s WALL (       2 calls)
     potinit      :      0.01s CPU      0.01s WALL (       2 calls)
     hinit0       :      0.01s CPU      0.01s WALL (       2 calls)

     Called by electrons:
     c_bands      :      9.20s CPU      9.89s WALL (      64 calls)
     sum_band     :      1.17s CPU      1.26s WALL (      64 calls)
     v_of_rho     :      0.12s CPU      0.14s WALL (      70 calls)
     mix_rho      :      0.02s CPU      0.02s WALL (      64 calls)

     Called by c_bands:
     init_us_2    :      0.09s CPU      0.10s WALL (    3888 calls)
     cegterg      :      8.97s CPU      9.63s WALL (    1730 calls)

     Called by *egterg:
     cdiaghg      :      0.83s CPU      0.90s WALL (    9360 calls)
     h_psi        :      7.54s CPU      8.10s WALL (    9578 calls)
     g_psi        :      0.02s CPU      0.03s WALL (    7794 calls)

     Called by h_psi:
     h_psi:calbec :      0.29s CPU      0.31s WALL (    9578 calls)
     vloc_psi     :      7.09s CPU      7.61s WALL (    9578 calls)
     add_vuspsi   :      0.08s CPU      0.09s WALL (    9578 calls)

     General routines
     calbec       :      0.31s CPU      0.33s WALL (   10523 calls)
     fft          :      0.11s CPU      0.12s WALL (     755 calls)
     ffts         :      0.01s CPU      0.01s WALL (      64 calls)
     fftw         :      7.71s CPU      8.27s WALL (  111854 calls)
 
     Parallel routines
     fft_scatt_xy :      0.51s CPU      0.55s WALL (  112673 calls)
     fft_scatt_yz :      4.47s CPU      4.80s WALL (  112673 calls)
 
     PWSCF        :     11.02s CPU     12.25s WALL

 
   This run was terminated on:  14:21:32  19Jan2024            

=------------------------------------------------------------------------------=
   JOB DONE.
=------------------------------------------------------------------------------=
