
     Program PWSCF v.6.7MaX starts on 19Jan2024 at 14:19:41 

     This program is part of the open-source Quantum ESPRESSO suite
     for quantum simulation of materials; please cite
         "P. Giannozzi et al., J. Phys.:Condens. Matter 21 395502 (2009);
         "P. Giannozzi et al., J. Phys.:Condens. Matter 29 465901 (2017);
          URL http://www.quantum-espresso.org", 
     in publications or presentations arising from this work. More details at
     http://www.quantum-espresso.org/quote

     Parallel version (MPI), running on    32 processors

     MPI processes distributed on     1 nodes
     R & G space division:  proc/nbgrp/npool/nimage =      32
     Waiting for input...
     Reading input from standard input

     Current dimensions of program PWSCF are:
     Max number of different atomic species (ntypx) = 10
     Max number of k-points (npk) =  40000
     Max angular momentum in pseudopotentials (lmaxx) =  3
     Message from routine read_pp_mesh:
     mesh size missing, using the one in header

     Subspace diagonalization in iterative solution of the eigenvalue problem:
     a serial algorithm will be used

 
     Parallelization info
     --------------------
     sticks:   dense  smooth     PW     G-vecs:    dense   smooth      PW
     Min          10      10      3                 1258     1258     216
     Max          12      12      5                 1277     1277     233
     Sum         337     337    109                40503    40503    7147
 


     bravais-lattice index     =            4
     lattice parameter (alat)  =       4.9200  a.u.
     unit-cell volume          =     849.0160 (a.u.)^3
     number of atoms/cell      =            2
     number of atomic types    =            1
     number of electrons       =         8.00
     number of Kohn-Sham states=            8
     kinetic-energy cutoff     =      50.0000  Ry
     charge density cutoff     =     200.0000  Ry
     scf convergence threshold =      1.0E-08
     mixing beta               =       0.7000
     number of iterations used =            8  plain     mixing
     energy convergence thresh.=      1.0E-04
     force convergence thresh. =      1.0E-08
     press convergence thresh. =      1.0E-03
     Exchange-correlation= PBE
                           (   1   4   3   4   0   0   0)
     nstep                     =           50


     celldm(1)=   4.920000  celldm(2)=   0.000000  celldm(3)=   8.231707
     celldm(4)=   0.000000  celldm(5)=   0.000000  celldm(6)=   0.000000

     crystal axes: (cart. coord. in units of alat)
               a(1) = (   1.000000   0.000000   0.000000 )  
               a(2) = (  -0.500000   0.866025   0.000000 )  
               a(3) = (   0.000000   0.000000   8.231707 )  

     reciprocal axes: (cart. coord. in units 2 pi/alat)
               b(1) = (  1.000000  0.577350  0.000000 )  
               b(2) = (  0.000000  1.154701  0.000000 )  
               b(3) = (  0.000000  0.000000  0.121481 )  


     PseudoPot. # 1 for C  read from file:
     /home/yhkim/qe-6.7/pseudo/ONCV1/1.2/C_ONCV_PBE-1.2.upf
     MD5 check sum: 1a5f83a7b1f58d24996abe00ed223ac6
     Pseudo is Norm-conserving, Zval =  4.0
     Generated using ONCVPSP code by D. R. Hamann
     Using radial grid of  602 points,  4 beta functions with: 
                l(1) =   0
                l(2) =   0
                l(3) =   1
                l(4) =   1

     atomic species   valence    mass     pseudopotential
        C              4.00    12.01070     C ( 1.00)

     24 Sym. Ops., with inversion, found



   Cartesian axes

     site n.     atom                  positions (alat units)
         1           C   tau(   1) = (  -0.0000000   0.5773503   4.1158537  )
         2           C   tau(   2) = (   0.5000000   0.2886751   4.1158537  )

     number of k points=    27  Methfessel-Paxton smearing, width (Ry)=  0.0100
                       cart. coord. in units 2pi/alat
        k(    1) = (   0.0000000   0.0000000   0.0000000), wk =   0.0088889
        k(    2) = (   0.0000000   0.0769800   0.0000000), wk =   0.0533333
        k(    3) = (   0.0000000   0.1539601   0.0000000), wk =   0.0533333
        k(    4) = (   0.0000000   0.2309401   0.0000000), wk =   0.0533333
        k(    5) = (   0.0000000   0.3079201   0.0000000), wk =   0.0533333
        k(    6) = (   0.0000000   0.3849002   0.0000000), wk =   0.0533333
        k(    7) = (   0.0000000   0.4618802   0.0000000), wk =   0.0533333
        k(    8) = (   0.0000000   0.5388603   0.0000000), wk =   0.0533333
        k(    9) = (   0.0666667   0.1154701   0.0000000), wk =   0.0533333
        k(   10) = (   0.0666667   0.1924501   0.0000000), wk =   0.1066667
        k(   11) = (   0.0666667   0.2694301   0.0000000), wk =   0.1066667
        k(   12) = (   0.0666667   0.3464102   0.0000000), wk =   0.1066667
        k(   13) = (   0.0666667   0.4233902   0.0000000), wk =   0.1066667
        k(   14) = (   0.0666667   0.5003702   0.0000000), wk =   0.1066667
        k(   15) = (   0.0666667   0.5773503   0.0000000), wk =   0.0533333
        k(   16) = (   0.1333333   0.2309401   0.0000000), wk =   0.0533333
        k(   17) = (   0.1333333   0.3079201   0.0000000), wk =   0.1066667
        k(   18) = (   0.1333333   0.3849002   0.0000000), wk =   0.1066667
        k(   19) = (   0.1333333   0.4618802   0.0000000), wk =   0.1066667
        k(   20) = (   0.1333333   0.5388603   0.0000000), wk =   0.1066667
        k(   21) = (   0.2000000   0.3464102   0.0000000), wk =   0.0533333
        k(   22) = (   0.2000000   0.4233902   0.0000000), wk =   0.1066667
        k(   23) = (   0.2000000   0.5003702   0.0000000), wk =   0.1066667
        k(   24) = (   0.2000000   0.5773503   0.0000000), wk =   0.0533333
        k(   25) = (   0.2666667   0.4618802   0.0000000), wk =   0.0533333
        k(   26) = (   0.2666667   0.5388603   0.0000000), wk =   0.1066667
        k(   27) = (   0.3333333   0.5773503   0.0000000), wk =   0.0177778

     Dense  grid:    40503 G-vectors     FFT dimensions: (  24,  24, 192)

     Estimated max dynamical RAM per process >       2.08 MB

     Estimated total dynamical RAM >      66.63 MB
 ----2D----2D----2D----2D----2D----2D----2D----2D----2D----2D----2D----2D
  The code is running with the 2D cutoff
  Please refer to:
  Sohier, T., Calandra, M., & Mauri, F. (2017), 
  Density functional perturbation theory for gated two-dimensional heterostructu
 res:
  Theoretical developments and application to flexural phonons in graphene.
  Physical Review B, 96(7), 75448. https://doi.org/10.1103/PhysRevB.96.075448
 ----2D----2D----2D----2D----2D----2D----2D----2D----2D----2D----2D----2D

     Initial potential from superposition of free atoms

     starting charge    7.98607, renormalised to    8.00000

     negative rho (up, down):  1.180E-04 0.000E+00
     Starting wfcs are random

     total cpu time spent up to now is        0.1 secs

     Self-consistent Calculation

     iteration #  1     ecut=    50.00 Ry     beta= 0.70
     Davidson diagonalization with overlap
     ethr =  1.00E-02,  avg # of iterations = 11.6

     negative rho (up, down):  5.788E-08 0.000E+00

     total cpu time spent up to now is        0.6 secs

     total energy              =     -22.74280084 Ry
     estimated scf accuracy    <       0.10000644 Ry

     iteration #  2     ecut=    50.00 Ry     beta= 0.70
     Davidson diagonalization with overlap
     ethr =  1.25E-03,  avg # of iterations =  2.3

     total cpu time spent up to now is        0.7 secs

     total energy              =     -22.76062496 Ry
     estimated scf accuracy    <       0.00198621 Ry

     iteration #  3     ecut=    50.00 Ry     beta= 0.70
     Davidson diagonalization with overlap
     c_bands:  1 eigenvalues not converged
     ethr =  2.48E-05,  avg # of iterations =  9.6

     total cpu time spent up to now is        1.0 secs

     total energy              =     -22.76389827 Ry
     estimated scf accuracy    <       0.00012420 Ry

     iteration #  4     ecut=    50.00 Ry     beta= 0.70
     Davidson diagonalization with overlap
     c_bands:  2 eigenvalues not converged
     ethr =  1.55E-06,  avg # of iterations =  6.2

     total cpu time spent up to now is        1.2 secs

     total energy              =     -22.76393506 Ry
     estimated scf accuracy    <       0.00000021 Ry

     iteration #  5     ecut=    50.00 Ry     beta= 0.70
     Davidson diagonalization with overlap
     ethr =  2.61E-09,  avg # of iterations =  4.8

     total cpu time spent up to now is        1.4 secs

     total energy              =     -22.76393735 Ry
     estimated scf accuracy    <       0.00000002 Ry

     iteration #  6     ecut=    50.00 Ry     beta= 0.70
     Davidson diagonalization with overlap
     ethr =  2.81E-10,  avg # of iterations =  2.0

     total cpu time spent up to now is        1.5 secs

     End of self-consistent calculation

          k = 0.0000 0.0000 0.0000 (  5167 PWs)   bands (ev):

   -22.9549 -11.2667  -7.7756  -7.7756  -0.9455  -0.1983   0.6011   0.9536

          k = 0.0000 0.0770 0.0000 (  5149 PWs)   bands (ev):

   -22.8599 -11.1567  -8.1807  -7.9620  -0.8173  -0.0691   0.7316   1.0832

          k = 0.0000 0.1540 0.0000 (  5143 PWs)   bands (ev):

   -22.5757 -10.8296  -9.2437  -8.4396  -0.4330   0.3181   1.1233   1.4715

          k = 0.0000 0.2309 0.0000 (  5107 PWs)   bands (ev):

   -22.1046 -10.6794 -10.2915  -9.0403   0.2068   0.9600   1.7751   2.2252

          k = 0.0000 0.3079 0.0000 (  5084 PWs)   bands (ev):

   -21.4515 -12.2691  -9.6297  -9.5580   1.0987   1.1446   1.8628   1.8851

          k = 0.0000 0.3849 0.0000 (  5064 PWs)   bands (ev):

   -20.6261 -13.8741 -10.1223  -8.6606  -0.3874   1.5322   2.2527   3.0253

          k = 0.0000 0.4619 0.0000 (  5042 PWs)   bands (ev):

   -19.6524 -15.3979 -10.4707  -7.6790  -1.8508   1.2999   3.6408   4.4206

          k = 0.0000 0.5389 0.0000 (  5024 PWs)   bands (ev):

   -18.6541 -16.6785 -10.6504  -6.8733  -2.9138   1.1780   5.2599   6.0341

          k = 0.0667 0.1155 0.0000 (  5135 PWs)   bands (ev):

   -22.6703 -10.9378  -8.8718  -8.3365  -0.5610   0.1892   0.9928   1.3422

          k = 0.0667 0.1925 0.0000 (  5121 PWs)   bands (ev):

   -22.2926 -10.5052 -10.0445  -8.9552  -0.0489   0.7044   1.5149   1.8591

          k = 0.0667 0.2694 0.0000 (  5096 PWs)   bands (ev):

   -21.7304 -11.5025  -9.8685  -9.6095   0.7179   1.4579   1.8040   2.2935

          k = 0.0667 0.3464 0.0000 (  5071 PWs)   bands (ev):

   -20.9906 -13.0681 -10.1850  -9.0484   0.3051   1.7321   2.1283   2.5092

          k = 0.0667 0.4234 0.0000 (  5060 PWs)   bands (ev):

   -20.0876 -14.6190 -10.6247  -8.0942  -1.1920   1.8367   3.0107   3.7792

          k = 0.0667 0.5004 0.0000 (  5028 PWs)   bands (ev):

   -19.0698 -16.0448 -10.8972  -7.1425  -2.5009   1.6578   4.5152   5.2770

          k = 0.0667 0.5774 0.0000 (  4994 PWs)   bands (ev):

   -18.3462 -16.9067 -10.9890  -6.6508  -3.1157   1.5965   6.1444   6.3166

          k = 0.1333 0.2309 0.0000 (  5073 PWs)   bands (ev):

   -21.8236 -11.0947  -9.9723  -9.7724   0.5906   1.3464   2.0254   2.1676

          k = 0.1333 0.3079 0.0000 (  5088 PWs)   bands (ev):

   -21.1743 -12.3835 -10.5644  -9.2461   0.7320   1.4831   2.2414   3.0789

          k = 0.1333 0.3849 0.0000 (  5061 PWs)   bands (ev):

   -20.3543 -13.8161 -11.1718  -8.3540  -0.6663   2.6215   3.1347   3.3798

          k = 0.1333 0.4619 0.0000 (  5056 PWs)   bands (ev):

   -19.3889 -15.2499 -11.5757  -7.3725  -2.0321   2.8915   4.0140   4.7376

          k = 0.1333 0.5389 0.0000 (  5025 PWs)   bands (ev):

   -18.3989 -16.4889 -11.7773  -6.5452  -3.0648   2.7701   5.6083   6.1923

          k = 0.2000 0.3464 0.0000 (  5063 PWs)   bands (ev):

   -20.4440 -13.3659 -11.5612  -8.4435  -0.4576   2.4985   3.2423   4.1223

          k = 0.2000 0.4234 0.0000 (  5066 PWs)   bands (ev):

   -19.5559 -14.5277 -12.2954  -7.5006  -1.7117   3.7529   4.4503   4.5999

          k = 0.2000 0.5004 0.0000 (  5048 PWs)   bands (ev):

   -18.5576 -15.7620 -12.7024  -6.5296  -2.8850   4.3969   5.2404   5.6895

          k = 0.2000 0.5774 0.0000 (  5046 PWs)   bands (ev):

   -17.8359 -16.5753 -12.8315  -5.9845  -3.5007   4.3349   6.2439   6.6814

          k = 0.2667 0.4619 0.0000 (  5058 PWs)   bands (ev):

   -18.6230 -15.3138 -13.2205  -6.5358  -2.7884   5.0959   5.4943   5.9640

          k = 0.2667 0.5389 0.0000 (  5066 PWs)   bands (ev):

   -17.6542 -16.2222 -13.6938  -5.6138  -3.7613   5.8477   5.9574   6.5482

          k = 0.3333 0.5774 0.0000 (  5076 PWs)   bands (ev):

   -16.8195 -16.8195 -14.1232  -4.6767  -4.6767   5.7132   6.8605   6.8605

     the Fermi energy is    -4.6767 ev

!    total energy              =     -22.76393736 Ry
     estimated scf accuracy    <          2.3E-10 Ry
     smearing contrib. (-TS)   =      -0.00005015 Ry
     internal energy E=F+TS    =     -22.76388721 Ry

     The total energy is F=E-TS. E is the sum of the following terms:
     one-electron contribution =    -346.56937514 Ry
     hartree contribution      =     173.80644084 Ry
     xc contribution           =      -6.78591962 Ry
     ewald contribution        =     156.78496672 Ry

     convergence has been achieved in   6 iterations

     Forces acting on atoms (cartesian axes, Ry/au):

     atom    1 type  1   force =    -0.00000000   -0.00000000    0.00000000
     atom    2 type  1   force =     0.00000000    0.00000000    0.00000000

     Total force =     0.000000     Total SCF correction =     0.000000


     Computing stress (Cartesian axis) and pressure

          total   stress  (Ry/bohr**3)                   (kbar)     P=      -67.93
  -0.00064682  -0.00000000  -0.00000000          -95.15       -0.00       -0.00
  -0.00000000  -0.00064682   0.00000000           -0.00      -95.15        0.00
   0.00000000   0.00000000  -0.00009168            0.00        0.00      -13.49


     BFGS Geometry Optimization
     Energy error            =      0.0E+00
     Gradient error          =      1.7E-26
     Cell gradient error     =      6.5E-04


     number of scf cycles    =   1
     number of bfgs steps    =   0

     enthalpy new            =     -22.7639373560 Ry

     new trust radius        =       0.0942352239 bohr
     new conv_thr            =       0.0000000100 Ry

     new unit-cell volume =    821.77983 a.u.^3 (   121.77521 Ang^3 )
     density =      0.32756 g/cm^3

CELL_PARAMETERS (alat=  4.92000000)
   0.983829429  -0.000000000   0.000000000
  -0.491914715   0.852021279   0.000000000
   0.000000000   0.000000000   8.231707317

ATOMIC_POSITIONS (crystal)
C             0.3333333333        0.6666666667        0.5000000000
C             0.6666666667        0.3333333333        0.5000000000



     Writing output data file ./work/LiC492.save/
     NEW-OLD atomic charge density approx. for the potential

     negative rho (up, down):  4.341E-06 0.000E+00
     extrapolated charge    7.73532, renormalised to    8.00000

     total cpu time spent up to now is        1.6 secs

     Self-consistent Calculation

     iteration #  1     ecut=    50.00 Ry     beta= 0.70
     Davidson diagonalization with overlap
     c_bands:  1 eigenvalues not converged
     c_bands:  3 eigenvalues not converged
     c_bands:  3 eigenvalues not converged
     c_bands:  2 eigenvalues not converged
     c_bands:  1 eigenvalues not converged
     c_bands:  1 eigenvalues not converged
     c_bands:  4 eigenvalues not converged
     c_bands:  2 eigenvalues not converged
     c_bands:  1 eigenvalues not converged
     c_bands:  1 eigenvalues not converged
     c_bands:  1 eigenvalues not converged
     c_bands:  1 eigenvalues not converged
     c_bands:  2 eigenvalues not converged
     c_bands:  2 eigenvalues not converged
     c_bands:  1 eigenvalues not converged
     c_bands:  1 eigenvalues not converged
     c_bands:  2 eigenvalues not converged
     c_bands:  1 eigenvalues not converged
     ethr =  1.00E-06,  avg # of iterations = 18.7

     negative rho (up, down):  2.703E-07 0.000E+00

     total cpu time spent up to now is        2.1 secs

     total energy              =     -22.75173258 Ry
     estimated scf accuracy    <       0.01503401 Ry

     iteration #  2     ecut=    50.00 Ry     beta= 0.70
     Davidson diagonalization with overlap
     ethr =  1.88E-04,  avg # of iterations = 10.3

     negative rho (up, down):  3.677E-08 0.000E+00

     total cpu time spent up to now is        2.4 secs

     total energy              =     -22.78032961 Ry
     estimated scf accuracy    <       0.01331387 Ry

     iteration #  3     ecut=    50.00 Ry     beta= 0.70
     Davidson diagonalization with overlap
     ethr =  1.66E-04,  avg # of iterations =  1.0

     total cpu time spent up to now is        2.5 secs

     total energy              =     -22.77926488 Ry
     estimated scf accuracy    <       0.00289616 Ry

     iteration #  4     ecut=    50.00 Ry     beta= 0.70
     Davidson diagonalization with overlap
     ethr =  3.62E-05,  avg # of iterations =  2.9

     total cpu time spent up to now is        2.6 secs

     total energy              =     -22.77963838 Ry
     estimated scf accuracy    <       0.00005187 Ry

     iteration #  5     ecut=    50.00 Ry     beta= 0.70
     Davidson diagonalization with overlap
     c_bands:  1 eigenvalues not converged
     ethr =  6.48E-07,  avg # of iterations =  7.0

     total cpu time spent up to now is        2.8 secs

     total energy              =     -22.77965718 Ry
     estimated scf accuracy    <       0.00000834 Ry

     iteration #  6     ecut=    50.00 Ry     beta= 0.70
     Davidson diagonalization with overlap
     ethr =  1.04E-07,  avg # of iterations =  1.5

     total cpu time spent up to now is        2.9 secs

     total energy              =     -22.77964901 Ry
     estimated scf accuracy    <       0.00001675 Ry

     iteration #  7     ecut=    50.00 Ry     beta= 0.70
     Davidson diagonalization with overlap
     ethr =  1.04E-07,  avg # of iterations =  2.0

     total cpu time spent up to now is        3.1 secs

     total energy              =     -22.77965084 Ry
     estimated scf accuracy    <       0.00000163 Ry

     iteration #  8     ecut=    50.00 Ry     beta= 0.70
     Davidson diagonalization with overlap
     ethr =  2.03E-08,  avg # of iterations =  1.0

     total cpu time spent up to now is        3.2 secs

     total energy              =     -22.77965079 Ry
     estimated scf accuracy    <       0.00000095 Ry

     iteration #  9     ecut=    50.00 Ry     beta= 0.70
     Davidson diagonalization with overlap
     ethr =  1.19E-08,  avg # of iterations =  2.0

     total cpu time spent up to now is        3.3 secs

     total energy              =     -22.77965086 Ry
     estimated scf accuracy    <       0.00000003 Ry

     iteration # 10     ecut=    50.00 Ry     beta= 0.70
     Davidson diagonalization with overlap
     ethr =  4.22E-10,  avg # of iterations =  2.7

     total cpu time spent up to now is        3.4 secs

     End of self-consistent calculation

          k = 0.0000 0.0000 0.0000 (  5167 PWs)   bands (ev):

   -23.2005 -11.4419  -7.6590  -7.6590  -0.9554  -0.1983   0.5998   0.9526

          k = 0.0000 0.0782 0.0000 (  5149 PWs)   bands (ev):

   -23.1027 -11.3273  -8.0680  -7.8552  -0.8231  -0.0646   0.7347   1.0867

          k = 0.0000 0.1565 0.0000 (  5143 PWs)   bands (ev):

   -22.8097 -10.9866  -9.1466  -8.3572  -0.4263   0.3358   1.1393   1.4883

          k = 0.0000 0.2347 0.0000 (  5107 PWs)   bands (ev):

   -22.3241 -10.6118 -10.4257  -8.9869   0.2343   1.0002   1.8131   2.1538

          k = 0.0000 0.3130 0.0000 (  5084 PWs)   bands (ev):

   -21.6503 -12.2407  -9.6605  -9.6036   1.1559   1.5206   1.9772   2.4041

          k = 0.0000 0.3912 0.0000 (  5064 PWs)   bands (ev):

   -20.7975 -13.8908 -10.1184  -8.7230  -0.0810   2.0731   2.3651   3.1389

          k = 0.0000 0.4695 0.0000 (  5042 PWs)   bands (ev):

   -19.7873 -15.4646 -10.4820  -7.6947  -1.6261   1.8625   3.7846   4.5837

          k = 0.0000 0.5477 0.0000 (  5024 PWs)   bands (ev):

   -18.7312 -16.8104 -10.6695  -6.8461  -2.7503   1.7440   5.4587   6.2594

          k = 0.0678 0.1174 0.0000 (  5135 PWs)   bands (ev):

   -22.9073 -11.0994  -8.7666  -8.2494  -0.5585   0.2025   1.0045   1.3546

          k = 0.0678 0.1956 0.0000 (  5121 PWs)   bands (ev):

   -22.5180 -10.6485  -9.9584  -8.8981  -0.0296   0.7354   1.5440   1.8893

          k = 0.0678 0.2739 0.0000 (  5096 PWs)   bands (ev):

   -21.9382 -11.4498  -9.9846  -9.5813   0.7623   1.5241   2.2298   2.3518

          k = 0.0678 0.3521 0.0000 (  5071 PWs)   bands (ev):

   -21.1745 -13.0577 -10.1806  -9.1286   0.6541   1.8123   2.6051   2.6871

          k = 0.0678 0.4303 0.0000 (  5060 PWs)   bands (ev):

   -20.2402 -14.6559 -10.6380  -8.1305  -0.9268   2.4035   3.1365   3.9193

          k = 0.0678 0.5086 0.0000 (  5028 PWs)   bands (ev):

   -19.1783 -16.1366 -10.9216  -7.1314  -2.3092   2.2326   4.6884   5.4731

          k = 0.0678 0.5868 0.0000 (  4994 PWs)   bands (ev):

   -18.3937 -17.0633 -11.0171  -6.6122  -2.9606   2.1727   6.3814   6.5489

          k = 0.1355 0.2347 0.0000 (  5073 PWs)   bands (ev):

   -22.0344 -11.0215 -10.0929  -9.7555   0.6309   1.3996   2.2184   2.4822

          k = 0.1355 0.3130 0.0000 (  5088 PWs)   bands (ev):

   -21.3644 -12.3388 -10.5800  -9.3351   1.1137   1.5529   2.3266   3.1614

          k = 0.1355 0.3912 0.0000 (  5061 PWs)   bands (ev):

   -20.5171 -13.8149 -11.2068  -8.4031  -0.3624   2.7307   3.5055   3.7277

          k = 0.1355 0.4695 0.0000 (  5056 PWs)   bands (ev):

   -19.5157 -15.2991 -11.6225  -7.3749  -1.8034   3.4908   4.1738   4.9142

          k = 0.1355 0.5477 0.0000 (  5025 PWs)   bands (ev):

   -18.4702 -16.6015 -11.8298  -6.5044  -2.8948   3.3753   5.8219   6.4345

          k = 0.2033 0.3521 0.0000 (  5063 PWs)   bands (ev):

   -20.6101 -13.3301 -11.6256  -8.4969  -0.1364   2.6022   3.3626   4.2389

          k = 0.2033 0.4303 0.0000 (  5066 PWs)   bands (ev):

   -19.6911 -14.5247 -12.3858  -7.5106  -1.4546   3.9002   4.6161   5.2416

          k = 0.2033 0.5086 0.0000 (  5048 PWs)   bands (ev):

   -18.6508 -15.8116 -12.8001  -6.4922  -2.6895   5.0362   5.4514   5.9084

          k = 0.2033 0.5868 0.0000 (  5046 PWs)   bands (ev):

   -17.8750 -16.6838 -12.9306  -5.9177  -3.3396   4.9834   6.4865   6.9740

          k = 0.2710 0.4695 0.0000 (  5058 PWs)   bands (ev):

   -18.7229 -15.3112 -13.3655  -6.5004  -2.5803   5.2947   5.7025   6.9935

          k = 0.2710 0.5477 0.0000 (  5066 PWs)   bands (ev):

   -17.7074 -16.2551 -13.8604  -5.5332  -3.5999   6.0562   6.6021   6.8837

          k = 0.3388 0.5868 0.0000 (  5076 PWs)   bands (ev):

   -16.8419 -16.8419 -14.3356  -4.5536  -4.5536   5.9052   7.4307   7.4307

     the Fermi energy is    -4.5536 ev

!    total energy              =     -22.77965088 Ry
     estimated scf accuracy    <          7.9E-09 Ry
     smearing contrib. (-TS)   =      -0.00005015 Ry
     internal energy E=F+TS    =     -22.77960073 Ry

     The total energy is F=E-TS. E is the sum of the following terms:
     one-electron contribution =    -358.16696542 Ry
     hartree contribution      =     179.63203571 Ry
     xc contribution           =      -6.85135023 Ry
     ewald contribution        =     162.60667920 Ry

     convergence has been achieved in  10 iterations

     Forces acting on atoms (cartesian axes, Ry/au):

     atom    1 type  1   force =    -0.00000000   -0.00000000    0.00000000
     atom    2 type  1   force =     0.00000000    0.00000000    0.00000000

     Total force =     0.000000     Total SCF correction =     0.000000


     Computing stress (Cartesian axis) and pressure

          total   stress  (Ry/bohr**3)                   (kbar)     P=      -53.73
  -0.00050245  -0.00000000  -0.00000000          -73.91       -0.00       -0.00
   0.00000000  -0.00050245   0.00000000            0.00      -73.91        0.00
   0.00000000   0.00000000  -0.00009080            0.00        0.00      -13.36

     Energy error            =      1.6E-02
     Gradient error          =      1.8E-26
     Cell gradient error     =      5.0E-04


     number of scf cycles    =   2
     number of bfgs steps    =   1

     enthalpy old            =     -22.7639373560 Ry
     enthalpy new            =     -22.7796508784 Ry

     CASE: enthalpy_new < enthalpy_old

     new trust radius        =       0.1036587463 bohr
     new conv_thr            =            1.0E-10 Ry

     new unit-cell volume =    792.33292 a.u.^3 (   117.41162 Ang^3 )
     density =      0.33973 g/cm^3

CELL_PARAMETERS (alat=  4.92000000)
   0.966041802  -0.000000000   0.000000000
  -0.483020901   0.836616741   0.000000000
   0.000000000   0.000000000   8.231707317

ATOMIC_POSITIONS (crystal)
C             0.3333333333        0.6666666667        0.5000000000
C             0.6666666667        0.3333333333        0.5000000000



     Writing output data file ./work/LiC492.save/
     NEW-OLD atomic charge density approx. for the potential

     negative rho (up, down):  6.748E-06 0.000E+00
     extrapolated charge    7.70320, renormalised to    8.00000

     total cpu time spent up to now is        3.5 secs

     Self-consistent Calculation

     iteration #  1     ecut=    50.00 Ry     beta= 0.70
     Davidson diagonalization with overlap
     c_bands:  3 eigenvalues not converged
     c_bands:  1 eigenvalues not converged
     c_bands:  3 eigenvalues not converged
     c_bands:  1 eigenvalues not converged
     c_bands:  1 eigenvalues not converged
     c_bands:  2 eigenvalues not converged
     c_bands:  3 eigenvalues not converged
     c_bands:  2 eigenvalues not converged
     c_bands:  2 eigenvalues not converged
     c_bands:  1 eigenvalues not converged
     c_bands:  1 eigenvalues not converged
     c_bands:  1 eigenvalues not converged
     c_bands:  1 eigenvalues not converged
     c_bands:  3 eigenvalues not converged
     c_bands:  2 eigenvalues not converged
     c_bands:  1 eigenvalues not converged
     c_bands:  1 eigenvalues not converged
     c_bands:  1 eigenvalues not converged
     c_bands:  1 eigenvalues not converged
     c_bands:  2 eigenvalues not converged
     c_bands:  1 eigenvalues not converged
     ethr =  1.00E-06,  avg # of iterations = 19.1

     negative rho (up, down):  6.988E-07 0.000E+00

     total cpu time spent up to now is        4.0 secs

     total energy              =     -22.75669798 Ry
     estimated scf accuracy    <       0.01871872 Ry

     iteration #  2     ecut=    50.00 Ry     beta= 0.70
     Davidson diagonalization with overlap
     ethr =  2.34E-04,  avg # of iterations = 10.2

     negative rho (up, down):  1.609E-07 0.000E+00

     total cpu time spent up to now is        4.3 secs

     total energy              =     -22.79258323 Ry
     estimated scf accuracy    <       0.01682720 Ry

     iteration #  3     ecut=    50.00 Ry     beta= 0.70
     Davidson diagonalization with overlap
     ethr =  2.10E-04,  avg # of iterations =  1.0

     total cpu time spent up to now is        4.4 secs

     total energy              =     -22.79129573 Ry
     estimated scf accuracy    <       0.00364479 Ry

     iteration #  4     ecut=    50.00 Ry     beta= 0.70
     Davidson diagonalization with overlap
     ethr =  4.56E-05,  avg # of iterations =  2.8

     total cpu time spent up to now is        4.6 secs

     total energy              =     -22.79171888 Ry
     estimated scf accuracy    <       0.00009303 Ry

     iteration #  5     ecut=    50.00 Ry     beta= 0.70
     Davidson diagonalization with overlap
     c_bands:  1 eigenvalues not converged
     c_bands:  1 eigenvalues not converged
     c_bands:  1 eigenvalues not converged
     ethr =  1.16E-06,  avg # of iterations =  7.6

     total cpu time spent up to now is        4.8 secs

     total energy              =     -22.79174918 Ry
     estimated scf accuracy    <       0.00000753 Ry

     iteration #  6     ecut=    50.00 Ry     beta= 0.70
     Davidson diagonalization with overlap
     ethr =  9.41E-08,  avg # of iterations =  3.0

     total cpu time spent up to now is        4.9 secs

     total energy              =     -22.79173738 Ry
     estimated scf accuracy    <       0.00002246 Ry

     iteration #  7     ecut=    50.00 Ry     beta= 0.70
     Davidson diagonalization with overlap
     ethr =  9.41E-08,  avg # of iterations =  2.9

     total cpu time spent up to now is        5.1 secs

     total energy              =     -22.79174089 Ry
     estimated scf accuracy    <       0.00000077 Ry

     iteration #  8     ecut=    50.00 Ry     beta= 0.70
     Davidson diagonalization with overlap
     ethr =  9.64E-09,  avg # of iterations =  1.1

     total cpu time spent up to now is        5.2 secs

     total energy              =     -22.79174093 Ry
     estimated scf accuracy    <       0.00000050 Ry

     iteration #  9     ecut=    50.00 Ry     beta= 0.70
     Davidson diagonalization with overlap
     ethr =  6.23E-09,  avg # of iterations =  1.7

     total cpu time spent up to now is        5.3 secs

     total energy              =     -22.79174094 Ry
     estimated scf accuracy    <       0.00000004 Ry

     iteration # 10     ecut=    50.00 Ry     beta= 0.70
     Davidson diagonalization with overlap
     ethr =  4.72E-10,  avg # of iterations =  2.4

     total cpu time spent up to now is        5.4 secs

     total energy              =     -22.79174095 Ry
     estimated scf accuracy    <          4.2E-09 Ry

     iteration # 11     ecut=    50.00 Ry     beta= 0.70
     Davidson diagonalization with overlap
     ethr =  5.23E-11,  avg # of iterations =  1.4

     total cpu time spent up to now is        5.5 secs

     total energy              =     -22.79174095 Ry
     estimated scf accuracy    <          4.1E-10 Ry

     iteration # 12     ecut=    50.00 Ry     beta= 0.70
     Davidson diagonalization with overlap
     ethr =  5.07E-12,  avg # of iterations =  2.5

     total cpu time spent up to now is        5.7 secs

     total energy              =     -22.79174095 Ry
     estimated scf accuracy    <          3.3E-10 Ry

     iteration # 13     ecut=    50.00 Ry     beta= 0.70
     Davidson diagonalization with overlap
     ethr =  4.18E-12,  avg # of iterations =  1.0

     total cpu time spent up to now is        5.8 secs

     End of self-consistent calculation

          k = 0.0000 0.0000 0.0000 (  5167 PWs)   bands (ev):

   -23.4775 -11.6438  -7.5146  -7.5146  -0.9661  -0.1978   0.5990   0.9520

          k = 0.0000 0.0797 0.0000 (  5149 PWs)   bands (ev):

   -23.3764 -11.5239  -7.9293  -7.7224  -0.8290  -0.0590   0.7389   1.0911

          k = 0.0000 0.1594 0.0000 (  5143 PWs)   bands (ev):

   -23.0735 -11.1674  -9.0281  -8.2529  -0.4177   0.3567   1.1585   1.5081

          k = 0.0000 0.2391 0.0000 (  5107 PWs)   bands (ev):

   -22.5714 -10.5802 -10.5286  -8.9167   0.2671   1.0470   1.8575   2.2003

          k = 0.0000 0.3187 0.0000 (  5084 PWs)   bands (ev):

   -21.8743 -12.2032  -9.7784  -9.5652   1.2228   1.8776   2.1617   2.8246

          k = 0.0000 0.3984 0.0000 (  5064 PWs)   bands (ev):

   -20.9906 -13.9051 -10.1056  -8.7943   0.2729   2.4249   2.7664   3.2711

          k = 0.0000 0.4781 0.0000 (  5042 PWs)   bands (ev):

   -19.9391 -15.5358 -10.4871  -7.7118  -1.3673   2.5121   3.9537   4.7727

          k = 0.0000 0.5578 0.0000 (  5024 PWs)   bands (ev):

   -18.8159 -16.9572 -10.6837  -6.8130  -2.5631   2.4006   5.6900   6.5199

          k = 0.0690 0.1195 0.0000 (  5135 PWs)   bands (ev):

   -23.1744 -11.2855  -8.6380  -8.1396  -0.5547   0.2183   1.0186   1.3693

          k = 0.0690 0.1992 0.0000 (  5121 PWs)   bands (ev):

   -22.7719 -10.8135  -9.8537  -8.8234  -0.0065   0.7718   1.5782   1.9246

          k = 0.0690 0.2789 0.0000 (  5096 PWs)   bands (ev):

   -22.1722 -11.3844 -10.1181  -9.5399   0.8145   1.5942   2.4167   2.6812

          k = 0.0690 0.3586 0.0000 (  5071 PWs)   bands (ev):

   -21.3815 -13.0412 -10.1670  -9.2204   1.0573   1.9043   2.7175   3.3185

          k = 0.0690 0.4383 0.0000 (  5060 PWs)   bands (ev):

   -20.4119 -14.6936 -10.6449  -8.1715  -0.6203   3.0327   3.3075   4.0819

          k = 0.0690 0.5180 0.0000 (  5028 PWs)   bands (ev):

   -19.3000 -16.2366 -10.9412  -7.1173  -2.0886   2.8976   4.8906   5.7001

          k = 0.0690 0.5976 0.0000 (  4994 PWs)   bands (ev):

   -18.4393 -17.2439 -11.0411  -6.5657  -2.7829   2.8408   6.6561   6.8187

          k = 0.1380 0.2391 0.0000 (  5073 PWs)   bands (ev):

   -22.2718 -10.9321 -10.2317  -9.7275   0.6785   1.4616   2.2778   2.6173

          k = 0.1380 0.3187 0.0000 (  5088 PWs)   bands (ev):

   -21.5784 -12.2831 -10.5891  -9.4372   1.5566   1.6347   2.4263   3.2562

          k = 0.1380 0.3984 0.0000 (  5061 PWs)   bands (ev):

   -20.7003 -13.8098 -11.2376  -8.4589  -0.0099   2.8572   3.6515   4.3890

          k = 0.1380 0.4781 0.0000 (  5056 PWs)   bands (ev):

   -19.6580 -15.3517 -11.6665  -7.3767  -1.5386   4.1542   4.3864   5.1191

          k = 0.1380 0.5578 0.0000 (  5025 PWs)   bands (ev):

   -18.5480 -16.7279 -11.8805  -6.4555  -2.6988   4.0742   6.0699   6.7155

          k = 0.2070 0.3586 0.0000 (  5063 PWs)   bands (ev):

   -20.7971 -13.2839 -11.6915  -8.5577   0.2371   2.7233   3.5022   4.3741

          k = 0.2070 0.4383 0.0000 (  5066 PWs)   bands (ev):

   -19.8429 -14.5172 -12.4800  -7.5211  -1.1556   4.0713   4.8086   5.7597

          k = 0.2070 0.5180 0.0000 (  5048 PWs)   bands (ev):

   -18.7548 -15.8662 -12.9008  -6.4475  -2.4625   5.6179   5.8461   6.1632

          k = 0.2070 0.5976 0.0000 (  5046 PWs)   bands (ev):

   -17.9115 -16.8116 -13.0325  -5.8387  -3.1531   5.7280   6.7705   7.3015

          k = 0.2760 0.4781 0.0000 (  5058 PWs)   bands (ev):

   -18.8344 -15.3019 -13.5244  -6.4581  -2.3377   5.5234   5.9450   7.2395

          k = 0.2760 0.5578 0.0000 (  5066 PWs)   bands (ev):

   -17.7639 -16.2901 -14.0421  -5.4383  -3.4116   6.2997   7.0945   7.4832

          k = 0.3451 0.5976 0.0000 (  5076 PWs)   bands (ev):

   -16.8602 -16.8602 -14.5769  -4.4094  -4.4094   6.1292   8.0267   8.0267

     the Fermi energy is    -4.4094 ev

!    total energy              =     -22.79174095 Ry
     estimated scf accuracy    <          2.7E-11 Ry
     smearing contrib. (-TS)   =      -0.00005015 Ry
     internal energy E=F+TS    =     -22.79169080 Ry

     The total energy is F=E-TS. E is the sum of the following terms:
     one-electron contribution =    -371.61936291 Ry
     hartree contribution      =     186.39076153 Ry
     xc contribution           =      -6.92653574 Ry
     ewald contribution        =     169.36344632 Ry

     convergence has been achieved in  13 iterations

     Forces acting on atoms (cartesian axes, Ry/au):

     atom    1 type  1   force =     0.00000000    0.00000000    0.00000000
     atom    2 type  1   force =    -0.00000000   -0.00000000    0.00000000

     Total force =     0.000000     Total SCF correction =     0.000000


     Computing stress (Cartesian axis) and pressure

          total   stress  (Ry/bohr**3)                   (kbar)     P=      -35.01
  -0.00031228   0.00000000   0.00000000          -45.94        0.00        0.00
   0.00000000  -0.00031228   0.00000000            0.00      -45.94        0.00
   0.00000000   0.00000000  -0.00008940            0.00        0.00      -13.15

     Energy error            =      1.2E-02
     Gradient error          =      1.8E-26
     Cell gradient error     =      3.1E-04


     number of scf cycles    =   3
     number of bfgs steps    =   2

     enthalpy old            =     -22.7796508784 Ry
     enthalpy new            =     -22.7917409468 Ry

     CASE: enthalpy_new < enthalpy_old

     new trust radius        =       0.1554881195 bohr
     new conv_thr            =            1.0E-10 Ry

     new unit-cell volume =    749.16990 a.u.^3 (   111.01553 Ang^3 )
     density =      0.35931 g/cm^3

CELL_PARAMETERS (alat=  4.92000000)
   0.939360360  -0.000000000   0.000000000
  -0.469680180   0.813509935   0.000000000
   0.000000000   0.000000000   8.231707317

ATOMIC_POSITIONS (crystal)
C             0.3333333333        0.6666666667        0.5000000000
C             0.6666666667        0.3333333333        0.5000000000



     Writing output data file ./work/LiC492.save/
     NEW-OLD atomic charge density approx. for the potential

     negative rho (up, down):  2.787E-05 0.000E+00
     extrapolated charge    7.53989, renormalised to    8.00000

     total cpu time spent up to now is        5.9 secs

     Self-consistent Calculation

     iteration #  1     ecut=    50.00 Ry     beta= 0.70
     Davidson diagonalization with overlap
     c_bands:  2 eigenvalues not converged
     c_bands:  1 eigenvalues not converged
     c_bands:  3 eigenvalues not converged
     c_bands:  2 eigenvalues not converged
     c_bands:  1 eigenvalues not converged
     c_bands:  1 eigenvalues not converged
     c_bands:  1 eigenvalues not converged
     c_bands:  1 eigenvalues not converged
     c_bands:  4 eigenvalues not converged
     c_bands:  3 eigenvalues not converged
     c_bands:  2 eigenvalues not converged
     c_bands:  1 eigenvalues not converged
     c_bands:  1 eigenvalues not converged
     c_bands:  1 eigenvalues not converged
     c_bands:  1 eigenvalues not converged
     c_bands:  3 eigenvalues not converged
     c_bands:  2 eigenvalues not converged
     c_bands:  1 eigenvalues not converged
     c_bands:  1 eigenvalues not converged
     c_bands:  3 eigenvalues not converged
     c_bands:  2 eigenvalues not converged
     c_bands:  1 eigenvalues not converged
     c_bands:  1 eigenvalues not converged
     c_bands:  2 eigenvalues not converged
     c_bands:  1 eigenvalues not converged
     ethr =  1.00E-06,  avg # of iterations = 19.7

     negative rho (up, down):  6.470E-06 0.000E+00

     total cpu time spent up to now is        6.4 secs

     total energy              =     -22.72158307 Ry
     estimated scf accuracy    <       0.04040828 Ry

     iteration #  2     ecut=    50.00 Ry     beta= 0.70
     Davidson diagonalization with overlap
     ethr =  5.05E-04,  avg # of iterations = 10.0

     negative rho (up, down):  2.921E-06 0.000E+00

     total cpu time spent up to now is        6.7 secs

     total energy              =     -22.79954077 Ry
     estimated scf accuracy    <       0.03695341 Ry

     iteration #  3     ecut=    50.00 Ry     beta= 0.70
     Davidson diagonalization with overlap
     ethr =  4.62E-04,  avg # of iterations =  1.1

     negative rho (up, down):  4.808E-07 0.000E+00

     total cpu time spent up to now is        6.8 secs

     total energy              =     -22.79749557 Ry
     estimated scf accuracy    <       0.00783989 Ry

     iteration #  4     ecut=    50.00 Ry     beta= 0.70
     Davidson diagonalization with overlap
     ethr =  9.80E-05,  avg # of iterations =  2.7

     total cpu time spent up to now is        7.0 secs

     total energy              =     -22.79773329 Ry
     estimated scf accuracy    <       0.00078621 Ry

     iteration #  5     ecut=    50.00 Ry     beta= 0.70
     Davidson diagonalization with overlap
     ethr =  9.83E-06,  avg # of iterations =  5.7

     total cpu time spent up to now is        7.2 secs

     total energy              =     -22.79788312 Ry
     estimated scf accuracy    <       0.00000869 Ry

     iteration #  6     ecut=    50.00 Ry     beta= 0.70
     Davidson diagonalization with overlap
     c_bands:  1 eigenvalues not converged
     ethr =  1.09E-07,  avg # of iterations =  4.7

     total cpu time spent up to now is        7.3 secs

     total energy              =     -22.79786796 Ry
     estimated scf accuracy    <       0.00003094 Ry

     iteration #  7     ecut=    50.00 Ry     beta= 0.70
     Davidson diagonalization with overlap
     ethr =  1.09E-07,  avg # of iterations =  2.3

     total cpu time spent up to now is        7.5 secs

     total energy              =     -22.79787412 Ry
     estimated scf accuracy    <       0.00000041 Ry

     iteration #  8     ecut=    50.00 Ry     beta= 0.70
     Davidson diagonalization with overlap
     ethr =  5.08E-09,  avg # of iterations =  2.1

     total cpu time spent up to now is        7.6 secs

     total energy              =     -22.79787402 Ry
     estimated scf accuracy    <       0.00000027 Ry

     iteration #  9     ecut=    50.00 Ry     beta= 0.70
     Davidson diagonalization with overlap
     ethr =  3.33E-09,  avg # of iterations =  2.0

     total cpu time spent up to now is        7.7 secs

     total energy              =     -22.79787405 Ry
     estimated scf accuracy    <          2.5E-09 Ry

     iteration # 10     ecut=    50.00 Ry     beta= 0.70
     Davidson diagonalization with overlap
     ethr =  3.13E-11,  avg # of iterations =  3.3

     total cpu time spent up to now is        7.9 secs

     total energy              =     -22.79787406 Ry
     estimated scf accuracy    <          1.5E-10 Ry

     iteration # 11     ecut=    50.00 Ry     beta= 0.70
     Davidson diagonalization with overlap
     ethr =  1.87E-12,  avg # of iterations =  2.2

     total cpu time spent up to now is        8.0 secs

     total energy              =     -22.79787406 Ry
     estimated scf accuracy    <          1.2E-10 Ry

     iteration # 12     ecut=    50.00 Ry     beta= 0.70
     Davidson diagonalization with overlap
     ethr =  1.54E-12,  avg # of iterations =  2.0

     total cpu time spent up to now is        8.1 secs

     End of self-consistent calculation

          k = 0.0000 0.0000 0.0000 (  5167 PWs)   bands (ev):

   -23.9041 -11.9646  -7.2604  -7.2604  -0.9817  -0.1972   0.5977   0.9506

          k = 0.0000 0.0819 0.0000 (  5149 PWs)   bands (ev):

   -23.7978 -11.8363  -7.6866  -7.4875  -0.8369  -0.0502   0.7456   1.0980

          k = 0.0000 0.1639 0.0000 (  5143 PWs)   bands (ev):

   -23.4796 -11.4543  -8.8217  -8.0646  -0.4024   0.3902   1.1894   1.5397

          k = 0.0000 0.2458 0.0000 (  5107 PWs)   bands (ev):

   -22.9517 -10.8250 -10.3812  -8.7840   0.3212   1.1219   1.9289   2.2736

          k = 0.0000 0.3278 0.0000 (  5084 PWs)   bands (ev):

   -22.2183 -12.1297  -9.9642  -9.4841   1.3320   2.1123   2.7870   2.9621

          k = 0.0000 0.4097 0.0000 (  5064 PWs)   bands (ev):

   -21.2866 -13.9137 -10.0661  -8.9053   0.8406   2.6215   3.4840   3.7696

          k = 0.0000 0.4917 0.0000 (  5042 PWs)   bands (ev):

   -20.1716 -15.6334 -10.4763  -7.7353  -0.9527   3.5444   4.2395   5.0760

          k = 0.0000 0.5736 0.0000 (  5024 PWs)   bands (ev):

   -18.9427 -17.1742 -10.6876  -6.7546  -2.2650   3.4591   6.0641   6.9366

          k = 0.0710 0.1229 0.0000 (  5135 PWs)   bands (ev):

   -23.5855 -11.5810  -8.4144  -7.9425  -0.5472   0.2435   1.0415   1.3926

          k = 0.0710 0.2049 0.0000 (  5121 PWs)   bands (ev):

   -23.1625 -11.0752  -9.6712  -8.6831   0.0322   0.8300   1.6334   1.9809

          k = 0.0710 0.2868 0.0000 (  5096 PWs)   bands (ev):

   -22.5319 -11.2669 -10.3291  -9.4534   0.9002   1.7038   2.5207   2.8542

          k = 0.0710 0.3688 0.0000 (  5071 PWs)   bands (ev):

   -21.6993 -13.0020 -10.1250  -9.3645   1.7027   2.0532   2.9018   3.6994

          k = 0.0710 0.4507 0.0000 (  5060 PWs)   bands (ev):

   -20.6749 -14.7397 -10.6360  -8.2336  -0.1279   3.4744   4.1472   4.3429

          k = 0.0710 0.5327 0.0000 (  5028 PWs)   bands (ev):

   -19.4861 -16.3796 -10.9527  -7.0900  -1.7354   3.9640   5.2208   6.0639

          k = 0.0710 0.6146 0.0000 (  4994 PWs)   bands (ev):

   -18.4895 -17.5299 -11.0595  -6.4852  -2.5001   3.9172   7.0981   7.2535

          k = 0.1419 0.2458 0.0000 (  5073 PWs)   bands (ev):

   -22.6367 -10.7753 -10.4512  -9.6629   0.7564   1.5610   2.3734   2.7148

          k = 0.1419 0.3278 0.0000 (  5088 PWs)   bands (ev):

   -21.9069 -12.1819 -10.5826  -9.5978   1.7678   2.2660   2.5933   3.4088

          k = 0.1419 0.4097 0.0000 (  5061 PWs)   bands (ev):

   -20.9809 -13.7905 -11.2641  -8.5450   0.5594   3.0616   3.8860   4.7361

          k = 0.1419 0.4917 0.0000 (  5056 PWs)   bands (ev):

   -19.8755 -15.4233 -11.7135  -7.3754  -1.1120   4.6208   5.3203   5.4481

          k = 0.1419 0.5736 0.0000 (  5025 PWs)   bands (ev):

   -18.6631 -16.9168 -11.9380  -6.3718  -2.3844   5.1931   6.4711   7.1669

          k = 0.2129 0.3688 0.0000 (  5063 PWs)   bands (ev):

   -21.0836 -13.1958 -11.7771  -8.6519   0.8424   2.9197   3.7264   4.5917

          k = 0.2129 0.4507 0.0000 (  5066 PWs)   bands (ev):

   -20.0747 -14.4943 -12.6061  -7.5341  -0.6710   4.3475   5.1179   6.0666

          k = 0.2129 0.5327 0.0000 (  5048 PWs)   bands (ev):

   -18.9119 -15.9446 -13.0332  -6.3713  -2.0948   6.0273   6.5750   6.9870

          k = 0.2129 0.6146 0.0000 (  5046 PWs)   bands (ev):

   -17.9484 -17.0202 -13.1661  -5.7061  -2.8518   6.9092   7.2333   7.8147

          k = 0.2839 0.4917 0.0000 (  5058 PWs)   bands (ev):

   -19.0028 -15.2708 -13.7576  -6.3860  -1.9431   5.8904   6.3370   7.6359

          k = 0.2839 0.5736 0.0000 (  5066 PWs)   bands (ev):

   -17.8424 -16.3385 -14.3045  -5.2807  -3.1045   6.6951   7.6150   9.0911

          k = 0.3549 0.6146 0.0000 (  5076 PWs)   bands (ev):

   -16.8703 -16.8703 -14.9537  -4.1724  -4.1724   6.4928   8.8650   8.8650

     the Fermi energy is    -4.1724 ev

!    total energy              =     -22.79787406 Ry
     estimated scf accuracy    <          1.7E-12 Ry
     smearing contrib. (-TS)   =      -0.00005015 Ry
     internal energy E=F+TS    =     -22.79782391 Ry

     The total energy is F=E-TS. E is the sum of the following terms:
     one-electron contribution =    -393.28209994 Ry
     hartree contribution      =     197.27690969 Ry
     xc contribution           =      -7.04580347 Ry
     ewald contribution        =     180.25316981 Ry

     convergence has been achieved in  12 iterations

     Forces acting on atoms (cartesian axes, Ry/au):

     atom    1 type  1   force =     0.00000000    0.00000000    0.00000000
     atom    2 type  1   force =     0.00000000    0.00000000    0.00000000

     Total force =     0.000000     Total SCF correction =     0.000000


     Computing stress (Cartesian axis) and pressure

          total   stress  (Ry/bohr**3)                   (kbar)     P=        0.17
   0.00004552  -0.00000000  -0.00000000            6.70       -0.00       -0.00
  -0.00000000   0.00004552  -0.00000000           -0.00        6.70       -0.00
   0.00000000   0.00000000  -0.00008755            0.00        0.00      -12.88

     Energy error            =      6.1E-03
     Gradient error          =      0.0E+00
     Cell gradient error     =      4.6E-05


     number of scf cycles    =   4
     number of bfgs steps    =   3

     enthalpy old            =     -22.7917409468 Ry
     enthalpy new            =     -22.7978740568 Ry

     CASE: enthalpy_new < enthalpy_old

     new trust radius        =       0.0193032426 bohr
     new conv_thr            =            1.0E-10 Ry

     new unit-cell volume =    754.46270 a.u.^3 (   111.79984 Ang^3 )
     density =      0.35678 g/cm^3

CELL_PARAMETERS (alat=  4.92000000)
   0.942672757  -0.000000000   0.000000000
  -0.471336378   0.816378555   0.000000000
   0.000000000   0.000000000   8.231707317

ATOMIC_POSITIONS (crystal)
C             0.3333333333        0.6666666667        0.5000000000
C             0.6666666667        0.3333333333        0.5000000000



     Writing output data file ./work/LiC492.save/
     NEW-OLD atomic charge density approx. for the potential

     negative rho (up, down):  3.051E-06 0.000E+00
     extrapolated charge    8.05602, renormalised to    8.00000

     total cpu time spent up to now is        8.2 secs

     Self-consistent Calculation

     iteration #  1     ecut=    50.00 Ry     beta= 0.70
     Davidson diagonalization with overlap
     c_bands:  1 eigenvalues not converged
     c_bands:  1 eigenvalues not converged
     c_bands:  1 eigenvalues not converged
     c_bands:  1 eigenvalues not converged
     ethr =  1.00E-06,  avg # of iterations = 15.2

     total cpu time spent up to now is        8.6 secs

     total energy              =     -22.62626824 Ry
     estimated scf accuracy    <       0.08044160 Ry

     iteration #  2     ecut=    50.00 Ry     beta= 0.70
     Davidson diagonalization with overlap
     ethr =  1.01E-03,  avg # of iterations =  7.8

     total cpu time spent up to now is        8.8 secs

     total energy              =     -22.81915795 Ry
     estimated scf accuracy    <       0.04933630 Ry

     iteration #  3     ecut=    50.00 Ry     beta= 0.70
     Davidson diagonalization with overlap
     ethr =  6.17E-04,  avg # of iterations =  2.8

     total cpu time spent up to now is        8.9 secs

     total energy              =     -22.80790080 Ry
     estimated scf accuracy    <       0.01490322 Ry

     iteration #  4     ecut=    50.00 Ry     beta= 0.70
     Davidson diagonalization with overlap
     ethr =  1.86E-04,  avg # of iterations =  4.0

     total cpu time spent up to now is        9.1 secs

     total energy              =     -22.80131053 Ry
     estimated scf accuracy    <       0.00679598 Ry

     iteration #  5     ecut=    50.00 Ry     beta= 0.70
     Davidson diagonalization with overlap
     ethr =  8.49E-05,  avg # of iterations =  3.8

     total cpu time spent up to now is        9.2 secs

     total energy              =     -22.80031143 Ry
     estimated scf accuracy    <       0.00243269 Ry

     iteration #  6     ecut=    50.00 Ry     beta= 0.70
     Davidson diagonalization with overlap
     ethr =  3.04E-05,  avg # of iterations =  4.0

     total cpu time spent up to now is        9.4 secs

     total energy              =     -22.79795689 Ry
     estimated scf accuracy    <       0.00171278 Ry

     iteration #  7     ecut=    50.00 Ry     beta= 0.70
     Davidson diagonalization with overlap
     ethr =  2.14E-05,  avg # of iterations =  8.7

     total cpu time spent up to now is        9.6 secs

     total energy              =     -22.79804617 Ry
     estimated scf accuracy    <       0.00005753 Ry

     iteration #  8     ecut=    50.00 Ry     beta= 0.70
     Davidson diagonalization with overlap
     ethr =  7.19E-07,  avg # of iterations =  4.0

     negative rho (up, down):  1.447E-06 0.000E+00

     total cpu time spent up to now is        9.7 secs

     total energy              =     -22.79797798 Ry
     estimated scf accuracy    <       0.00008104 Ry

     iteration #  9     ecut=    50.00 Ry     beta= 0.70
     Davidson diagonalization with overlap
     ethr =  7.19E-07,  avg # of iterations =  4.8

     total cpu time spent up to now is        9.9 secs

     total energy              =     -22.79798209 Ry
     estimated scf accuracy    <       0.00000005 Ry

     iteration # 10     ecut=    50.00 Ry     beta= 0.70
     Davidson diagonalization with overlap
     ethr =  6.68E-10,  avg # of iterations =  4.6

     total cpu time spent up to now is       10.1 secs

     total energy              =     -22.79798268 Ry
     estimated scf accuracy    <       0.00000008 Ry

     iteration # 11     ecut=    50.00 Ry     beta= 0.70
     Davidson diagonalization with overlap
     ethr =  6.68E-10,  avg # of iterations =  3.9

     total cpu time spent up to now is       10.2 secs

     total energy              =     -22.79798268 Ry
     estimated scf accuracy    <       0.00000001 Ry

     iteration # 12     ecut=    50.00 Ry     beta= 0.70
     Davidson diagonalization with overlap
     ethr =  1.35E-10,  avg # of iterations =  1.0

     total cpu time spent up to now is       10.3 secs

     total energy              =     -22.79798268 Ry
     estimated scf accuracy    <          4.9E-09 Ry

     iteration # 13     ecut=    50.00 Ry     beta= 0.70
     Davidson diagonalization with overlap
     ethr =  6.15E-11,  avg # of iterations =  1.0

     total cpu time spent up to now is       10.4 secs

     total energy              =     -22.79798268 Ry
     estimated scf accuracy    <          1.4E-09 Ry

     iteration # 14     ecut=    50.00 Ry     beta= 0.70
     Davidson diagonalization with overlap
     ethr =  1.80E-11,  avg # of iterations =  1.3

     total cpu time spent up to now is       10.5 secs

     total energy              =     -22.79798268 Ry
     estimated scf accuracy    <          6.0E-10 Ry

     iteration # 15     ecut=    50.00 Ry     beta= 0.70
     Davidson diagonalization with overlap
     ethr =  7.52E-12,  avg # of iterations =  1.3

     total cpu time spent up to now is       10.7 secs

     total energy              =     -22.79798268 Ry
     estimated scf accuracy    <          1.3E-10 Ry

     iteration # 16     ecut=    50.00 Ry     beta= 0.70
     Davidson diagonalization with overlap
     ethr =  1.59E-12,  avg # of iterations =  1.9

     total cpu time spent up to now is       10.8 secs

     End of self-consistent calculation

          k = 0.0000 0.0000 0.0000 (  5167 PWs)   bands (ev):

   -23.8504 -11.9235  -7.2946  -7.2946  -0.9798  -0.1973   0.5979   0.9508

          k = 0.0000 0.0817 0.0000 (  5149 PWs)   bands (ev):

   -23.7447 -11.7963  -7.7191  -7.5191  -0.8360  -0.0514   0.7448   1.0971

          k = 0.0000 0.1633 0.0000 (  5143 PWs)   bands (ev):

   -23.4285 -11.4176  -8.8493  -8.0902  -0.4045   0.3859   1.1855   1.5357

          k = 0.0000 0.2450 0.0000 (  5107 PWs)   bands (ev):

   -22.9039 -10.7937 -10.4011  -8.8024   0.3141   1.1122   1.9197   2.2642

          k = 0.0000 0.3266 0.0000 (  5084 PWs)   bands (ev):

   -22.1751 -12.1401  -9.9405  -9.4957   1.3178   2.0912   2.6991   2.9454

          k = 0.0000 0.4083 0.0000 (  5064 PWs)   bands (ev):

   -21.2494 -13.9136 -10.0724  -8.8912   0.7676   2.5975   3.4565   3.6403

          k = 0.0000 0.4900 0.0000 (  5042 PWs)   bands (ev):

   -20.1424 -15.6220 -10.4789  -7.7325  -1.0059   3.4136   4.2005   5.0369

          k = 0.0000 0.5716 0.0000 (  5024 PWs)   bands (ev):

   -18.9268 -17.1477 -10.6883  -6.7624  -2.3032   3.3227   6.0157   6.8830

          k = 0.0707 0.1225 0.0000 (  5135 PWs)   bands (ev):

   -23.5338 -11.5431  -8.4443  -7.9692  -0.5483   0.2402   1.0386   1.3896

          k = 0.0707 0.2042 0.0000 (  5121 PWs)   bands (ev):

   -23.1134 -11.0417  -9.6956  -8.7025   0.0271   0.8224   1.6263   1.9736

          k = 0.0707 0.2858 0.0000 (  5096 PWs)   bands (ev):

   -22.4867 -11.2829 -10.3022  -9.4658   0.8890   1.6897   2.5073   2.8395

          k = 0.0707 0.3675 0.0000 (  5071 PWs)   bands (ev):

   -21.6593 -13.0079 -10.1317  -9.3461   1.6200   2.0339   2.8776   3.6765

          k = 0.0707 0.4491 0.0000 (  5060 PWs)   bands (ev):

   -20.6419 -14.7347 -10.6384  -8.2258  -0.1913   3.4421   4.0150   4.3093

          k = 0.0707 0.5308 0.0000 (  5028 PWs)   bands (ev):

   -19.4627 -16.3625 -10.9525  -7.0937  -1.7808   3.8272   5.1777   6.0171

          k = 0.0707 0.6125 0.0000 (  4994 PWs)   bands (ev):

   -18.4846 -17.4934 -11.0584  -6.4959  -2.5363   3.7785   7.0411   7.1973

          k = 0.1414 0.2450 0.0000 (  5073 PWs)   bands (ev):

   -22.5908 -10.7964 -10.4231  -9.6725   0.7462   1.5482   2.3611   2.7023

          k = 0.1414 0.3266 0.0000 (  5088 PWs)   bands (ev):

   -21.8656 -12.1957 -10.5848  -9.5773   1.7505   2.1759   2.5702   3.3891

          k = 0.1414 0.4083 0.0000 (  5061 PWs)   bands (ev):

   -20.9457 -13.7938 -11.2621  -8.5342   0.4859   3.0351   3.8557   4.7063

          k = 0.1414 0.4900 0.0000 (  5056 PWs)   bands (ev):

   -19.8482 -15.4150 -11.7090  -7.3758  -1.1670   4.5810   5.1804   5.4057

          k = 0.1414 0.5716 0.0000 (  5025 PWs)   bands (ev):

   -18.6488 -16.8936 -11.9321  -6.3829  -2.4248   5.0495   6.4191   7.1088

          k = 0.2122 0.3675 0.0000 (  5063 PWs)   bands (ev):

   -21.0476 -13.2081 -11.7674  -8.6399   0.7642   2.8942   3.6975   4.5637

          k = 0.2122 0.4491 0.0000 (  5066 PWs)   bands (ev):

   -20.0456 -14.4980 -12.5915  -7.5327  -0.7336   4.3118   5.0782   6.0275

          k = 0.2122 0.5308 0.0000 (  5048 PWs)   bands (ev):

   -18.8922 -15.9351 -13.0181  -6.3814  -2.1423   5.9781   6.5218   6.8381

          k = 0.2122 0.6125 0.0000 (  5046 PWs)   bands (ev):

   -17.9451 -16.9931 -13.1510  -5.7235  -2.8907   6.7584   7.7491   7.9738

          k = 0.2829 0.4900 0.0000 (  5058 PWs)   bands (ev):

   -18.9818 -15.2759 -13.7291  -6.3955  -1.9942   5.8431   6.2864   7.5848

          k = 0.2829 0.5716 0.0000 (  5066 PWs)   bands (ev):

   -17.8330 -16.3327 -14.2729  -5.3013  -3.1443   6.6439   7.5507   8.4968

          k = 0.3536 0.6125 0.0000 (  5076 PWs)   bands (ev):

   -16.8703 -16.8703 -14.9059  -4.2032  -4.2032   6.4457   8.7638   9.3473

     the Fermi energy is    -4.2032 ev

!    total energy              =     -22.79798268 Ry
     estimated scf accuracy    <          9.2E-12 Ry
     smearing contrib. (-TS)   =      -0.00005015 Ry
     internal energy E=F+TS    =     -22.79793253 Ry

     The total energy is F=E-TS. E is the sum of the following terms:
     one-electron contribution =    -390.49020607 Ry
     hartree contribution      =     195.87373489 Ry
     xc contribution           =      -7.03055676 Ry
     ewald contribution        =     178.84909541 Ry

     convergence has been achieved in  16 iterations

     Forces acting on atoms (cartesian axes, Ry/au):

     atom    1 type  1   force =     0.00000000    0.00000000    0.00000000
     atom    2 type  1   force =     0.00000000    0.00000000    0.00000000

     Total force =     0.000000     Total SCF correction =     0.000000


     Computing stress (Cartesian axis) and pressure

          total   stress  (Ry/bohr**3)                   (kbar)     P=       -4.71
  -0.00000418   0.00000000   0.00000000           -0.62        0.00        0.00
   0.00000000  -0.00000418   0.00000000            0.00       -0.62        0.00
   0.00000000   0.00000000  -0.00008778            0.00        0.00      -12.91

     Energy error            =      1.1E-04
     Gradient error          =      0.0E+00
     Cell gradient error     =      4.2E-06


     number of scf cycles    =   5
     number of bfgs steps    =   4

     enthalpy old            =     -22.7978740568 Ry
     enthalpy new            =     -22.7979826819 Ry

     CASE: enthalpy_new < enthalpy_old

     new trust radius        =       0.0016292585 bohr
     new conv_thr            =            1.0E-10 Ry

     new unit-cell volume =    754.01525 a.u.^3 (   111.73353 Ang^3 )
     density =      0.35700 g/cm^3

CELL_PARAMETERS (alat=  4.92000000)
   0.942393179  -0.000000000   0.000000000
  -0.471196590   0.816136434   0.000000000
   0.000000000   0.000000000   8.231707317

ATOMIC_POSITIONS (crystal)
C             0.3333333333        0.6666666667        0.5000000000
C             0.6666666667        0.3333333333        0.5000000000



     Writing output data file ./work/LiC492.save/
     NEW-OLD atomic charge density approx. for the potential
     extrapolated charge    7.99526, renormalised to    8.00000

     total cpu time spent up to now is       10.9 secs

     Self-consistent Calculation

     iteration #  1     ecut=    50.00 Ry     beta= 0.70
     Davidson diagonalization with overlap
     ethr =  1.00E-06,  avg # of iterations =  5.9

     Threshold (ethr) on eigenvalues was too large:
     Diagonalizing with lowered threshold

     Davidson diagonalization with overlap
     ethr =  8.23E-08,  avg # of iterations =  1.0

     total cpu time spent up to now is       11.1 secs

     total energy              =     -22.79797034 Ry
     estimated scf accuracy    <       0.00000680 Ry

     iteration #  2     ecut=    50.00 Ry     beta= 0.70
     Davidson diagonalization with overlap
     ethr =  8.51E-08,  avg # of iterations =  6.1

     total cpu time spent up to now is       11.3 secs

     total energy              =     -22.79798401 Ry
     estimated scf accuracy    <       0.00000638 Ry

     iteration #  3     ecut=    50.00 Ry     beta= 0.70
     Davidson diagonalization with overlap
     ethr =  7.97E-08,  avg # of iterations =  1.0

     total cpu time spent up to now is       11.4 secs

     total energy              =     -22.79798362 Ry
     estimated scf accuracy    <       0.00000147 Ry

     iteration #  4     ecut=    50.00 Ry     beta= 0.70
     Davidson diagonalization with overlap
     ethr =  1.84E-08,  avg # of iterations =  1.9

     total cpu time spent up to now is       11.6 secs

     total energy              =     -22.79798373 Ry
     estimated scf accuracy    <       0.00000023 Ry

     iteration #  5     ecut=    50.00 Ry     beta= 0.70
     Davidson diagonalization with overlap
     ethr =  2.87E-09,  avg # of iterations =  1.0

     total cpu time spent up to now is       11.7 secs

     total energy              =     -22.79798367 Ry
     estimated scf accuracy    <       0.00000024 Ry

     iteration #  6     ecut=    50.00 Ry     beta= 0.70
     Davidson diagonalization with overlap
     ethr =  2.87E-09,  avg # of iterations =  1.0

     total cpu time spent up to now is       11.8 secs

     total energy              =     -22.79798361 Ry
     estimated scf accuracy    <       0.00000011 Ry

     iteration #  7     ecut=    50.00 Ry     beta= 0.70
     Davidson diagonalization with overlap
     ethr =  1.43E-09,  avg # of iterations =  2.0

     total cpu time spent up to now is       11.9 secs

     total energy              =     -22.79798363 Ry
     estimated scf accuracy    <          8.4E-10 Ry

     iteration #  8     ecut=    50.00 Ry     beta= 0.70
     Davidson diagonalization with overlap
     ethr =  1.05E-11,  avg # of iterations =  2.7

     total cpu time spent up to now is       12.0 secs

     End of self-consistent calculation

          k = 0.0000 0.0000 0.0000 (  5167 PWs)   bands (ev):

   -23.8548 -11.9269  -7.2916  -7.2916  -0.9800  -0.1973   0.5979   0.9508

          k = 0.0000 0.0817 0.0000 (  5149 PWs)   bands (ev):

   -23.7491 -11.7996  -7.7163  -7.5163  -0.8361  -0.0513   0.7448   1.0972

          k = 0.0000 0.1634 0.0000 (  5143 PWs)   bands (ev):

   -23.4327 -11.4206  -8.8469  -8.0880  -0.4044   0.3862   1.1858   1.5360

          k = 0.0000 0.2451 0.0000 (  5107 PWs)   bands (ev):

   -22.9079 -10.7963 -10.3993  -8.8008   0.3147   1.1130   1.9205   2.2650

          k = 0.0000 0.3267 0.0000 (  5084 PWs)   bands (ev):

   -22.1786 -12.1392  -9.9424  -9.4947   1.3190   2.0930   2.7065   2.9469

          k = 0.0000 0.4084 0.0000 (  5064 PWs)   bands (ev):

   -21.2525 -13.9135 -10.0718  -8.8923   0.7738   2.5995   3.4588   3.6514

          k = 0.0000 0.4901 0.0000 (  5042 PWs)   bands (ev):

   -20.1448 -15.6229 -10.4786  -7.7327  -1.0014   3.4247   4.2038   5.0402

          k = 0.0000 0.5718 0.0000 (  5024 PWs)   bands (ev):

   -18.9281 -17.1498 -10.6882  -6.7617  -2.2999   3.3342   6.0198   6.8875

          k = 0.0707 0.1225 0.0000 (  5135 PWs)   bands (ev):

   -23.5381 -11.5463  -8.4417  -7.9669  -0.5482   0.2405   1.0388   1.3898

          k = 0.0707 0.2042 0.0000 (  5121 PWs)   bands (ev):

   -23.1175 -11.0445  -9.6935  -8.7008   0.0275   0.8231   1.6268   1.9742

          k = 0.0707 0.2859 0.0000 (  5096 PWs)   bands (ev):

   -22.4904 -11.2815 -10.3044  -9.4647   0.8899   1.6909   2.5084   2.8408

          k = 0.0707 0.3676 0.0000 (  5071 PWs)   bands (ev):

   -21.6626 -13.0074 -10.1310  -9.3476   1.6270   2.0356   2.8796   3.6784

          k = 0.0707 0.4493 0.0000 (  5060 PWs)   bands (ev):

   -20.6446 -14.7351 -10.6381  -8.2264  -0.1859   3.4449   4.0262   4.3121

          k = 0.0707 0.5310 0.0000 (  5028 PWs)   bands (ev):

   -19.4646 -16.3639 -10.9525  -7.0934  -1.7769   3.8387   5.1813   6.0210

          k = 0.0707 0.6126 0.0000 (  4994 PWs)   bands (ev):

   -18.4849 -17.4964 -11.0585  -6.4950  -2.5332   3.7902   7.0459   7.2021

          k = 0.1415 0.2451 0.0000 (  5073 PWs)   bands (ev):

   -22.5946 -10.7946 -10.4255  -9.6716   0.7471   1.5493   2.3621   2.7033

          k = 0.1415 0.3267 0.0000 (  5088 PWs)   bands (ev):

   -21.8690 -12.1945 -10.5846  -9.5790   1.7519   2.1836   2.5721   3.3907

          k = 0.1415 0.4084 0.0000 (  5061 PWs)   bands (ev):

   -20.9486 -13.7934 -11.2622  -8.5350   0.4922   3.0374   3.8583   4.7088

          k = 0.1415 0.4901 0.0000 (  5056 PWs)   bands (ev):

   -19.8505 -15.4156 -11.7093  -7.3757  -1.1623   4.5844   5.1922   5.4092

          k = 0.1415 0.5718 0.0000 (  5025 PWs)   bands (ev):

   -18.6499 -16.8954 -11.9326  -6.3819  -2.4213   5.0616   6.4235   7.1137

          k = 0.2122 0.3676 0.0000 (  5063 PWs)   bands (ev):

   -21.0506 -13.2070 -11.7682  -8.6409   0.7708   2.8964   3.7000   4.5661

          k = 0.2122 0.4493 0.0000 (  5066 PWs)   bands (ev):

   -20.0480 -14.4976 -12.5927  -7.5328  -0.7283   4.3148   5.0814   6.0307

          k = 0.2122 0.5310 0.0000 (  5048 PWs)   bands (ev):

   -18.8938 -15.9359 -13.0194  -6.3805  -2.1382   5.9823   6.5263   6.8506

          k = 0.2122 0.6126 0.0000 (  5046 PWs)   bands (ev):

   -17.9453 -16.9953 -13.1522  -5.7220  -2.8873   6.7711   7.7543   7.9790

          k = 0.2830 0.4901 0.0000 (  5058 PWs)   bands (ev):

   -18.9835 -15.2754 -13.7314  -6.3947  -1.9898   5.8471   6.2906   7.5891

          k = 0.2830 0.5718 0.0000 (  5066 PWs)   bands (ev):

   -17.8337 -16.3331 -14.2755  -5.2995  -3.1409   6.6482   7.5562   8.5093

          k = 0.3537 0.6126 0.0000 (  5076 PWs)   bands (ev):

   -16.8703 -16.8703 -14.9099  -4.2006  -4.2006   6.4497   8.7724   9.3539

     the Fermi energy is    -4.2006 ev

!    total energy              =     -22.79798363 Ry
     estimated scf accuracy    <          6.2E-11 Ry
     smearing contrib. (-TS)   =      -0.00005015 Ry
     internal energy E=F+TS    =     -22.79793348 Ry

     The total energy is F=E-TS. E is the sum of the following terms:
     one-electron contribution =    -390.72465561 Ry
     hartree contribution      =     195.99154300 Ry
     xc contribution           =      -7.03183408 Ry
     ewald contribution        =     178.96701321 Ry

     convergence has been achieved in   8 iterations

     Forces acting on atoms (cartesian axes, Ry/au):

     atom    1 type  1   force =     0.00000000    0.00000000    0.00000000
     atom    2 type  1   force =     0.00000000    0.00000000    0.00000000

     Total force =     0.000000     Total SCF correction =     0.000000


     Computing stress (Cartesian axis) and pressure

          total   stress  (Ry/bohr**3)                   (kbar)     P=       -4.31
  -0.00000005   0.00000000   0.00000000           -0.01        0.00        0.00
   0.00000000  -0.00000005   0.00000000            0.00       -0.01        0.00
   0.00000000   0.00000000  -0.00008780            0.00        0.00      -12.92

     Energy error            =      9.5E-07
     Gradient error          =      0.0E+00
     Cell gradient error     =      5.0E-08


     number of scf cycles    =   6
     number of bfgs steps    =   5

     enthalpy old            =     -22.7979826819 Ry
     enthalpy new            =     -22.7979836287 Ry

     CASE: enthalpy_new < enthalpy_old

     small trust_radius: resetting bfgs history

     new trust radius        =       0.0000068503 bohr
     new conv_thr            =            1.0E-10 Ry

     new unit-cell volume =    754.01337 a.u.^3 (   111.73325 Ang^3 )
     density =      0.35700 g/cm^3

CELL_PARAMETERS (alat=  4.92000000)
   0.942392004  -0.000000000   0.000000000
  -0.471196002   0.816135416   0.000000000
   0.000000000   0.000000000   8.231707317

ATOMIC_POSITIONS (crystal)
C             0.3333333333        0.6666666667        0.5000000000
C             0.6666666667        0.3333333333        0.5000000000



     Writing output data file ./work/LiC492.save/
     NEW-OLD atomic charge density approx. for the potential
     extrapolated charge    7.99998, renormalised to    8.00000

     total cpu time spent up to now is       12.1 secs

     Self-consistent Calculation

     iteration #  1     ecut=    50.00 Ry     beta= 0.70
     Davidson diagonalization with overlap
     ethr =  1.00E-06,  avg # of iterations =  1.0

     Threshold (ethr) on eigenvalues was too large:
     Diagonalizing with lowered threshold

     Davidson diagonalization with overlap
     ethr =  2.52E-12,  avg # of iterations =  1.9

     total cpu time spent up to now is       12.3 secs

     total energy              =     -22.79798363 Ry
     estimated scf accuracy    <          2.2E-10 Ry

     iteration #  2     ecut=    50.00 Ry     beta= 0.70
     Davidson diagonalization with overlap
     ethr =  2.78E-12,  avg # of iterations =  2.0

     total cpu time spent up to now is       12.5 secs

     total energy              =     -22.79798363 Ry
     estimated scf accuracy    <          1.1E-10 Ry

     iteration #  3     ecut=    50.00 Ry     beta= 0.70
     Davidson diagonalization with overlap
     ethr =  1.37E-12,  avg # of iterations =  1.0

     total cpu time spent up to now is       12.6 secs

     End of self-consistent calculation

          k = 0.0000 0.0000 0.0000 (  5167 PWs)   bands (ev):

   -23.8548 -11.9269  -7.2916  -7.2916  -0.9800  -0.1973   0.5979   0.9508

          k = 0.0000 0.0817 0.0000 (  5149 PWs)   bands (ev):

   -23.7492 -11.7996  -7.7163  -7.5163  -0.8361  -0.0513   0.7448   1.0972

          k = 0.0000 0.1634 0.0000 (  5143 PWs)   bands (ev):

   -23.4327 -11.4206  -8.8469  -8.0879  -0.4044   0.3862   1.1858   1.5360

          k = 0.0000 0.2451 0.0000 (  5107 PWs)   bands (ev):

   -22.9079 -10.7963 -10.3993  -8.8007   0.3147   1.1130   1.9205   2.2650

          k = 0.0000 0.3267 0.0000 (  5084 PWs)   bands (ev):

   -22.1786 -12.1391  -9.9424  -9.4947   1.3190   2.0930   2.7065   2.9469

          k = 0.0000 0.4084 0.0000 (  5064 PWs)   bands (ev):

   -21.2525 -13.9135 -10.0718  -8.8923   0.7739   2.5995   3.4588   3.6513

          k = 0.0000 0.4901 0.0000 (  5042 PWs)   bands (ev):

   -20.1448 -15.6229 -10.4786  -7.7327  -1.0014   3.4248   4.2038   5.0402

          k = 0.0000 0.5718 0.0000 (  5024 PWs)   bands (ev):

   -18.9281 -17.1498 -10.6882  -6.7617  -2.2999   3.3343   6.0198   6.8875

          k = 0.0707 0.1225 0.0000 (  5135 PWs)   bands (ev):

   -23.5381 -11.5463  -8.4417  -7.9669  -0.5482   0.2405   1.0388   1.3898

          k = 0.0707 0.2042 0.0000 (  5121 PWs)   bands (ev):

   -23.1175 -11.0445  -9.6935  -8.7007   0.0275   0.8231   1.6268   1.9742

          k = 0.0707 0.2859 0.0000 (  5096 PWs)   bands (ev):

   -22.4904 -11.2814 -10.3044  -9.4647   0.8899   1.6909   2.5084   2.8408

          k = 0.0707 0.3676 0.0000 (  5071 PWs)   bands (ev):

   -21.6626 -13.0073 -10.1310  -9.3476   1.6271   2.0356   2.8796   3.6784

          k = 0.0707 0.4493 0.0000 (  5060 PWs)   bands (ev):

   -20.6446 -14.7351 -10.6381  -8.2264  -0.1859   3.4449   4.0262   4.3121

          k = 0.0707 0.5310 0.0000 (  5028 PWs)   bands (ev):

   -19.4646 -16.3639 -10.9524  -7.0934  -1.7769   3.8388   5.1814   6.0210

          k = 0.0707 0.6126 0.0000 (  4994 PWs)   bands (ev):

   -18.4849 -17.4964 -11.0585  -6.4950  -2.5332   3.7903   7.0459   7.2021

          k = 0.1415 0.2451 0.0000 (  5073 PWs)   bands (ev):

   -22.5946 -10.7945 -10.4255  -9.6716   0.7471   1.5493   2.3621   2.7034

          k = 0.1415 0.3267 0.0000 (  5088 PWs)   bands (ev):

   -21.8690 -12.1945 -10.5846  -9.5790   1.7519   2.1836   2.5721   3.3908

          k = 0.1415 0.4084 0.0000 (  5061 PWs)   bands (ev):

   -20.9486 -13.7934 -11.2622  -8.5350   0.4922   3.0374   3.8583   4.7088

          k = 0.1415 0.4901 0.0000 (  5056 PWs)   bands (ev):

   -19.8505 -15.4156 -11.7093  -7.3757  -1.1623   4.5844   5.1922   5.4093

          k = 0.1415 0.5718 0.0000 (  5025 PWs)   bands (ev):

   -18.6499 -16.8954 -11.9326  -6.3819  -2.4213   5.0617   6.4235   7.1137

          k = 0.2122 0.3676 0.0000 (  5063 PWs)   bands (ev):

   -21.0506 -13.2070 -11.7682  -8.6409   0.7708   2.8964   3.7000   4.5661

          k = 0.2122 0.4493 0.0000 (  5066 PWs)   bands (ev):

   -20.0480 -14.4976 -12.5927  -7.5327  -0.7282   4.3148   5.0814   6.0308

          k = 0.2122 0.5310 0.0000 (  5048 PWs)   bands (ev):

   -18.8938 -15.9359 -13.0194  -6.3805  -2.1382   5.9823   6.5263   6.8507

          k = 0.2122 0.6126 0.0000 (  5046 PWs)   bands (ev):

   -17.9453 -16.9953 -13.1522  -5.7220  -2.8873   6.7712   7.7541   7.9789

          k = 0.2830 0.4901 0.0000 (  5058 PWs)   bands (ev):

   -18.9835 -15.2754 -13.7314  -6.3947  -1.9898   5.8471   6.2907   7.5891

          k = 0.2830 0.5718 0.0000 (  5066 PWs)   bands (ev):

   -17.8337 -16.3331 -14.2755  -5.2995  -3.1409   6.6483   7.5562   8.5094

          k = 0.3537 0.6126 0.0000 (  5076 PWs)   bands (ev):

   -16.8703 -16.8703 -14.9099  -4.2005  -4.2005   6.4497   8.7724   9.3540

     the Fermi energy is    -4.2005 ev

!    total energy              =     -22.79798363 Ry
     estimated scf accuracy    <          2.0E-11 Ry
     smearing contrib. (-TS)   =      -0.00005015 Ry
     internal energy E=F+TS    =     -22.79793348 Ry

     The total energy is F=E-TS. E is the sum of the following terms:
     one-electron contribution =    -390.72564976 Ry
     hartree contribution      =     195.99204797 Ry
     xc contribution           =      -7.03184091 Ry
     ewald contribution        =     178.96750923 Ry

     convergence has been achieved in   3 iterations

     Forces acting on atoms (cartesian axes, Ry/au):

     atom    1 type  1   force =     0.00000000    0.00000000    0.00000000
     atom    2 type  1   force =     0.00000000    0.00000000    0.00000000

     Total force =     0.000000     Total SCF correction =     0.000000


     Computing stress (Cartesian axis) and pressure

          total   stress  (Ry/bohr**3)                   (kbar)     P=       -4.31
  -0.00000003   0.00000000   0.00000000           -0.00        0.00        0.00
   0.00000000  -0.00000003   0.00000000            0.00       -0.00        0.00
   0.00000000   0.00000000  -0.00008779            0.00        0.00      -12.91

     Energy error            =      9.8E-11
     Gradient error          =      0.0E+00
     Cell gradient error     =      2.9E-08


     number of scf cycles    =   7
     number of bfgs steps    =   6

     enthalpy old            =     -22.7979836287 Ry
     enthalpy new            =     -22.7979836288 Ry

     CASE: enthalpy_new < enthalpy_old

     Message from routine bfgs:
     history already reset at previous step: stopping
     small trust_radius: resetting bfgs history

     new trust radius        =       0.0000039970 bohr
     new conv_thr            =            1.0E-10 Ry

     new unit-cell volume =    754.01227 a.u.^3 (   111.73309 Ang^3 )
     density =      0.35700 g/cm^3

CELL_PARAMETERS (alat=  4.92000000)
   0.942391318  -0.000000000   0.000000000
  -0.471195659   0.816134822   0.000000000
   0.000000000   0.000000000   8.231707317

ATOMIC_POSITIONS (crystal)
C             0.3333333333        0.6666666667        0.5000000000
C             0.6666666667        0.3333333333        0.5000000000



     Writing output data file ./work/LiC492.save/
     NEW-OLD atomic charge density approx. for the potential
     extrapolated charge    7.99999, renormalised to    8.00000

     total cpu time spent up to now is       12.7 secs

     Self-consistent Calculation

     iteration #  1     ecut=    50.00 Ry     beta= 0.70
     Davidson diagonalization with overlap
     ethr =  1.00E-06,  avg # of iterations =  1.0

     Threshold (ethr) on eigenvalues was too large:
     Diagonalizing with lowered threshold

     Davidson diagonalization with overlap
     ethr =  8.74E-13,  avg # of iterations =  1.9

     total cpu time spent up to now is       12.9 secs

     End of self-consistent calculation

          k = 0.0000 0.0000 0.0000 (  5167 PWs)   bands (ev):

   -23.8559 -11.9279  -7.2927  -7.2927  -0.9806  -0.1976   0.5981   0.9509

          k = 0.0000 0.0817 0.0000 (  5149 PWs)   bands (ev):

   -23.7502 -11.8006  -7.7174  -7.5174  -0.8367  -0.0516   0.7450   1.0973

          k = 0.0000 0.1634 0.0000 (  5143 PWs)   bands (ev):

   -23.4338 -11.4216  -8.8480  -8.0890  -0.4050   0.3859   1.1859   1.5361

          k = 0.0000 0.2451 0.0000 (  5107 PWs)   bands (ev):

   -22.9090 -10.7973 -10.4004  -8.8018   0.3141   1.1127   1.9206   2.2651

          k = 0.0000 0.3267 0.0000 (  5084 PWs)   bands (ev):

   -22.1797 -12.1402  -9.9434  -9.4958   1.3184   2.0926   2.7056   2.9471

          k = 0.0000 0.4084 0.0000 (  5064 PWs)   bands (ev):

   -21.2536 -13.9146 -10.0729  -8.8933   0.7729   2.5989   3.4584   3.6503

          k = 0.0000 0.4901 0.0000 (  5042 PWs)   bands (ev):

   -20.1458 -15.6240 -10.4797  -7.7337  -1.0024   3.4237   4.2031   5.0398

          k = 0.0000 0.5718 0.0000 (  5024 PWs)   bands (ev):

   -18.9291 -17.1509 -10.6892  -6.7627  -2.3009   3.3332   6.0192   6.8871

          k = 0.0707 0.1225 0.0000 (  5135 PWs)   bands (ev):

   -23.5392 -11.5473  -8.4428  -7.9680  -0.5488   0.2402   1.0390   1.3899

          k = 0.0707 0.2042 0.0000 (  5121 PWs)   bands (ev):

   -23.1186 -11.0455  -9.6946  -8.7018   0.0270   0.8227   1.6270   1.9744

          k = 0.0707 0.2859 0.0000 (  5096 PWs)   bands (ev):

   -22.4915 -11.2825 -10.3054  -9.4658   0.8893   1.6906   2.5086   2.8409

          k = 0.0707 0.3676 0.0000 (  5071 PWs)   bands (ev):

   -21.6637 -13.0084 -10.1321  -9.3486   1.6261   2.0350   2.8793   3.6786

          k = 0.0707 0.4493 0.0000 (  5060 PWs)   bands (ev):

   -20.6456 -14.7362 -10.6392  -8.2274  -0.1869   3.4442   4.0252   4.3118

          k = 0.0707 0.5310 0.0000 (  5028 PWs)   bands (ev):

   -19.4657 -16.3649 -10.9535  -7.0944  -1.7779   3.8378   5.1807   6.0206

          k = 0.0707 0.6126 0.0000 (  4994 PWs)   bands (ev):

   -18.4860 -17.4975 -11.0595  -6.4960  -2.5342   3.7892   7.0453   7.2015

          k = 0.1415 0.2451 0.0000 (  5073 PWs)   bands (ev):

   -22.5957 -10.7956 -10.4265  -9.6727   0.7465   1.5489   2.3623   2.7035

          k = 0.1415 0.3267 0.0000 (  5088 PWs)   bands (ev):

   -21.8701 -12.1955 -10.5857  -9.5800   1.7513   2.1826   2.5717   3.3909

          k = 0.1415 0.4084 0.0000 (  5061 PWs)   bands (ev):

   -20.9497 -13.7945 -11.2633  -8.5360   0.4912   3.0368   3.8579   4.7090

          k = 0.1415 0.4901 0.0000 (  5056 PWs)   bands (ev):

   -19.8515 -15.4167 -11.7104  -7.3767  -1.1633   4.5838   5.1912   5.4088

          k = 0.1415 0.5718 0.0000 (  5025 PWs)   bands (ev):

   -18.6510 -16.8965 -11.9336  -6.3829  -2.4223   5.0607   6.4229   7.1131

          k = 0.2122 0.3676 0.0000 (  5063 PWs)   bands (ev):

   -21.0516 -13.2080 -11.7692  -8.6419   0.7698   2.8958   3.6996   4.5662

          k = 0.2122 0.4493 0.0000 (  5066 PWs)   bands (ev):

   -20.0491 -14.4987 -12.5938  -7.5338  -0.7293   4.3142   5.0810   6.0309

          k = 0.2122 0.5310 0.0000 (  5048 PWs)   bands (ev):

   -18.8949 -15.9369 -13.0204  -6.3815  -2.1392   5.9816   6.5257   6.8497

          k = 0.2122 0.6126 0.0000 (  5046 PWs)   bands (ev):

   -17.9464 -16.9963 -13.1533  -5.7230  -2.8883   6.7702   7.7533   7.9782

          k = 0.2830 0.4901 0.0000 (  5058 PWs)   bands (ev):

   -18.9846 -15.2764 -13.7325  -6.3957  -1.9908   5.8464   6.2900   7.5891

          k = 0.2830 0.5718 0.0000 (  5066 PWs)   bands (ev):

   -17.8348 -16.3341 -14.2766  -5.3005  -3.1419   6.6474   7.5555   8.5084

          k = 0.3537 0.6126 0.0000 (  5076 PWs)   bands (ev):

   -16.8713 -16.8713 -14.9110  -4.2016  -4.2016   6.4488   8.7716   9.3532

     the Fermi energy is    -4.2016 ev

!    total energy              =     -22.79798363 Ry
     estimated scf accuracy    <          7.7E-11 Ry
     smearing contrib. (-TS)   =      -0.00005015 Ry
     internal energy E=F+TS    =     -22.79793348 Ry

     The total energy is F=E-TS. E is the sum of the following terms:
     one-electron contribution =    -390.72632069 Ry
     hartree contribution      =     195.99244249 Ry
     xc contribution           =      -7.03185393 Ry
     ewald contribution        =     178.96779865 Ry

     convergence has been achieved in   1 iterations

     Forces acting on atoms (cartesian axes, Ry/au):

     atom    1 type  1   force =     0.00000000    0.00000000    0.00000000
     atom    2 type  1   force =     0.00000000    0.00000000    0.00000000

     Total force =     0.000000     Total SCF correction =     0.000000


     Computing stress (Cartesian axis) and pressure

          total   stress  (Ry/bohr**3)                   (kbar)     P=       -4.30
  -0.00000003   0.00000000   0.00000000           -0.00        0.00        0.00
   0.00000000  -0.00000003   0.00000000            0.00       -0.00        0.00
   0.00000000   0.00000000  -0.00008769            0.00        0.00      -12.90

     Message from routine bfgs:
     history already reset at previous step: stopping
     Energy error            =      9.2E-11
     Gradient error          =      0.0E+00
     Cell gradient error     =      3.1E-08


     bfgs converged in   8 scf cycles and   7 bfgs steps
     (criteria: energy <  1.0E-04 Ry, force <  1.0E-08Ry/Bohr, cell <  1.0E-03kbar)

     End of BFGS Geometry Optimization

     Final enthalpy =     -22.7979836287 Ry

     File ./work/LiC492.bfgs deleted, as requested
Begin final coordinates
     new unit-cell volume =    754.01227 a.u.^3 (   111.73309 Ang^3 )
     density =      0.35700 g/cm^3

CELL_PARAMETERS (alat=  4.92000000)
   0.942391318  -0.000000000   0.000000000
  -0.471195659   0.816134822   0.000000000
   0.000000000   0.000000000   8.231707317

ATOMIC_POSITIONS (crystal)
C             0.3333333333        0.6666666667        0.5000000000
C             0.6666666667        0.3333333333        0.5000000000
End final coordinates



     Writing output data file ./work/LiC492.save/

     Final scf calculation at the relaxed structure.
     The G-vectors are recalculated for the final unit cell
     Results may differ from those at the preceding step.
 
     Parallelization info
     --------------------
     sticks:   dense  smooth     PW     G-vecs:    dense   smooth      PW
     Min           9       9      2                 1117     1117     170
     Max          10      10      3                 1146     1146     215
     Sum         301     301     91                36087    36087    6397
 


     bravais-lattice index     =            4
     lattice parameter (alat)  =       4.9200  a.u.
     unit-cell volume          =     754.0123 (a.u.)^3
     number of atoms/cell      =            2
     number of atomic types    =            1
     number of electrons       =         8.00
     number of Kohn-Sham states=            8
     kinetic-energy cutoff     =      50.0000  Ry
     charge density cutoff     =     200.0000  Ry
     scf convergence threshold =      1.0E-10
     mixing beta               =       0.7000
     number of iterations used =            8  plain     mixing
     press convergence thresh. =      1.0E-03
     Exchange-correlation= PBE
                           (   1   4   3   4   0   0   0)

     celldm(1)=   4.920000  celldm(2)=   0.000000  celldm(3)=   8.231707
     celldm(4)=   0.000000  celldm(5)=   0.000000  celldm(6)=   0.000000

     crystal axes: (cart. coord. in units of alat)
               a(1) = (   0.942391  -0.000000   0.000000 )  
               a(2) = (  -0.471196   0.816135   0.000000 )  
               a(3) = (   0.000000   0.000000   8.231707 )  

     reciprocal axes: (cart. coord. in units 2 pi/alat)
               b(1) = (  1.061130  0.612644  0.000000 )  
               b(2) = (  0.000000  1.225288  0.000000 )  
               b(3) = (  0.000000  0.000000  0.121481 )  


     PseudoPot. # 1 for C  read from file:
     /home/yhkim/qe-6.7/pseudo/ONCV1/1.2/C_ONCV_PBE-1.2.upf
     MD5 check sum: 1a5f83a7b1f58d24996abe00ed223ac6
     Pseudo is Norm-conserving, Zval =  4.0
     Generated using ONCVPSP code by D. R. Hamann
     Using radial grid of  602 points,  4 beta functions with: 
                l(1) =   0
                l(2) =   0
                l(3) =   1
                l(4) =   1

     atomic species   valence    mass     pseudopotential
        C              4.00    12.01070     C ( 1.00)

     24 Sym. Ops., with inversion, found



   Cartesian axes

     site n.     atom                  positions (alat units)
         1           C   tau(   1) = (  -0.0000000   0.5440899   4.1158537  )
         2           C   tau(   2) = (   0.4711957   0.2720449   4.1158537  )

     number of k points=    27  Methfessel-Paxton smearing, width (Ry)=  0.0100
                       cart. coord. in units 2pi/alat
        k(    1) = (   0.0000000   0.0000000   0.0000000), wk =   0.0088889
        k(    2) = (   0.0000000   0.0816859   0.0000000), wk =   0.0533333
        k(    3) = (   0.0000000   0.1633717   0.0000000), wk =   0.0533333
        k(    4) = (   0.0000000   0.2450576   0.0000000), wk =   0.0533333
        k(    5) = (   0.0000000   0.3267434   0.0000000), wk =   0.0533333
        k(    6) = (   0.0000000   0.4084293   0.0000000), wk =   0.0533333
        k(    7) = (   0.0000000   0.4901151   0.0000000), wk =   0.0533333
        k(    8) = (   0.0000000   0.5718010   0.0000000), wk =   0.0533333
        k(    9) = (   0.0707420   0.1225288   0.0000000), wk =   0.0533333
        k(   10) = (   0.0707420   0.2042146   0.0000000), wk =   0.1066667
        k(   11) = (   0.0707420   0.2859005   0.0000000), wk =   0.1066667
        k(   12) = (   0.0707420   0.3675863   0.0000000), wk =   0.1066667
        k(   13) = (   0.0707420   0.4492722   0.0000000), wk =   0.1066667
        k(   14) = (   0.0707420   0.5309580   0.0000000), wk =   0.1066667
        k(   15) = (   0.0707420   0.6126439   0.0000000), wk =   0.0533333
        k(   16) = (   0.1414840   0.2450576   0.0000000), wk =   0.0533333
        k(   17) = (   0.1414840   0.3267434   0.0000000), wk =   0.1066667
        k(   18) = (   0.1414840   0.4084293   0.0000000), wk =   0.1066667
        k(   19) = (   0.1414840   0.4901151   0.0000000), wk =   0.1066667
        k(   20) = (   0.1414840   0.5718010   0.0000000), wk =   0.1066667
        k(   21) = (   0.2122261   0.3675863   0.0000000), wk =   0.0533333
        k(   22) = (   0.2122261   0.4492722   0.0000000), wk =   0.1066667
        k(   23) = (   0.2122261   0.5309580   0.0000000), wk =   0.1066667
        k(   24) = (   0.2122261   0.6126439   0.0000000), wk =   0.0533333
        k(   25) = (   0.2829681   0.4901151   0.0000000), wk =   0.0533333
        k(   26) = (   0.2829681   0.5718010   0.0000000), wk =   0.1066667
        k(   27) = (   0.3537101   0.6126439   0.0000000), wk =   0.0177778

     Dense  grid:    36087 G-vectors     FFT dimensions: (  24,  24, 192)

     Estimated max dynamical RAM per process >       1.96 MB

     Estimated total dynamical RAM >      62.62 MB
 ----2D----2D----2D----2D----2D----2D----2D----2D----2D----2D----2D----2D
  The code is running with the 2D cutoff
  Please refer to:
  Sohier, T., Calandra, M., & Mauri, F. (2017), 
  Density functional perturbation theory for gated two-dimensional heterostructu
 res:
  Theoretical developments and application to flexural phonons in graphene.
  Physical Review B, 96(7), 75448. https://doi.org/10.1103/PhysRevB.96.075448
 ----2D----2D----2D----2D----2D----2D----2D----2D----2D----2D----2D----2D

     Initial potential from superposition of free atoms

     starting charge    7.98607, renormalised to    8.00000

     negative rho (up, down):  1.162E-04 0.000E+00
     Starting wfcs are random

     total cpu time spent up to now is       13.1 secs

     Self-consistent Calculation

     iteration #  1     ecut=    50.00 Ry     beta= 0.70
     Davidson diagonalization with overlap
     c_bands:  5 eigenvalues not converged
     c_bands:  2 eigenvalues not converged
     c_bands:  4 eigenvalues not converged
     c_bands:  4 eigenvalues not converged
     c_bands:  4 eigenvalues not converged
     c_bands:  3 eigenvalues not converged
     c_bands:  3 eigenvalues not converged
     c_bands:  2 eigenvalues not converged
     c_bands:  2 eigenvalues not converged
     c_bands:  3 eigenvalues not converged
     c_bands:  4 eigenvalues not converged
     c_bands:  4 eigenvalues not converged
     c_bands:  4 eigenvalues not converged
     c_bands:  2 eigenvalues not converged
     c_bands:  2 eigenvalues not converged
     c_bands:  4 eigenvalues not converged
     c_bands:  4 eigenvalues not converged
     c_bands:  4 eigenvalues not converged
     c_bands:  3 eigenvalues not converged
     c_bands:  3 eigenvalues not converged
     c_bands:  4 eigenvalues not converged
     c_bands:  4 eigenvalues not converged
     c_bands:  3 eigenvalues not converged
     c_bands:  4 eigenvalues not converged
     c_bands:  3 eigenvalues not converged
     c_bands:  3 eigenvalues not converged
     c_bands:  3 eigenvalues not converged
     ethr =  1.00E-06,  avg # of iterations = 22.2

     negative rho (up, down):  2.312E-05 0.000E+00

     total cpu time spent up to now is       13.8 secs

     total energy              =     -22.76036390 Ry
     estimated scf accuracy    <       0.19867572 Ry

     iteration #  2     ecut=    50.00 Ry     beta= 0.70
     Davidson diagonalization with overlap
     ethr =  2.48E-03,  avg # of iterations =  2.1

     negative rho (up, down):  3.000E-06 0.000E+00

     total cpu time spent up to now is       13.9 secs

     total energy              =     -22.79028695 Ry
     estimated scf accuracy    <       0.00233756 Ry

     iteration #  3     ecut=    50.00 Ry     beta= 0.70
     Davidson diagonalization with overlap
     ethr =  2.92E-05,  avg # of iterations =  8.7

     total cpu time spent up to now is       14.2 secs

     total energy              =     -22.79068163 Ry
     estimated scf accuracy    <       0.00017397 Ry

     iteration #  4     ecut=    50.00 Ry     beta= 0.70
     Davidson diagonalization with overlap
     c_bands:  1 eigenvalues not converged
     ethr =  2.17E-06,  avg # of iterations =  6.3

     total cpu time spent up to now is       14.3 secs

     total energy              =     -22.79069621 Ry
     estimated scf accuracy    <       0.00000117 Ry

     iteration #  5     ecut=    50.00 Ry     beta= 0.70
     Davidson diagonalization with overlap
     ethr =  1.46E-08,  avg # of iterations =  4.3

     total cpu time spent up to now is       14.5 secs

     total energy              =     -22.79069775 Ry
     estimated scf accuracy    <       0.00000004 Ry

     iteration #  6     ecut=    50.00 Ry     beta= 0.70
     Davidson diagonalization with overlap
     ethr =  5.48E-10,  avg # of iterations =  2.3

     total cpu time spent up to now is       14.6 secs

     total energy              =     -22.79069776 Ry
     estimated scf accuracy    <          1.2E-09 Ry

     iteration #  7     ecut=    50.00 Ry     beta= 0.70
     Davidson diagonalization with overlap
     ethr =  1.52E-11,  avg # of iterations =  3.1

     total cpu time spent up to now is       14.7 secs

     End of self-consistent calculation

          k = 0.0000 0.0000 0.0000 (  4483 PWs)   bands (ev):

   -23.8667 -11.9307  -7.2806  -7.2806  -0.9829  -0.2036   0.5840   0.9391

          k = 0.0000 0.0817 0.0000 (  4471 PWs)   bands (ev):

   -23.7607 -11.8026  -7.7044  -7.5039  -0.8389  -0.0575   0.7310   1.0856

          k = 0.0000 0.1634 0.0000 (  4489 PWs)   bands (ev):

   -23.4442 -11.4234  -8.8352  -8.0742  -0.4071   0.3802   1.1719   1.5243

          k = 0.0000 0.2451 0.0000 (  4471 PWs)   bands (ev):

   -22.9189 -10.7993 -10.3883  -8.7864   0.3121   1.1071   1.9067   2.2533

          k = 0.0000 0.3267 0.0000 (  4511 PWs)   bands (ev):

   -22.1895 -12.1355  -9.9452  -9.4839   1.3166   2.0882   2.7094   2.9332

          k = 0.0000 0.4084 0.0000 (  4519 PWs)   bands (ev):

   -21.2631 -13.9148 -10.0614  -8.8938   0.7778   2.5975   3.4534   3.6466

          k = 0.0000 0.4901 0.0000 (  4521 PWs)   bands (ev):

   -20.1549 -15.6277 -10.4704  -7.7331  -0.9986   3.4180   4.2011   5.0353

          k = 0.0000 0.5718 0.0000 (  4529 PWs)   bands (ev):

   -18.9381 -17.1564 -10.6818  -6.7617  -2.2992   3.3257   6.0181   6.8834

          k = 0.0707 0.1225 0.0000 (  4503 PWs)   bands (ev):

   -23.5496 -11.5492  -8.4311  -7.9566  -0.5510   0.2344   1.0250   1.3782

          k = 0.0707 0.2042 0.0000 (  4493 PWs)   bands (ev):

   -23.1288 -11.0471  -9.6825  -8.6902   0.0249   0.8171   1.6131   1.9626

          k = 0.0707 0.2859 0.0000 (  4489 PWs)   bands (ev):

   -22.5015 -11.2741 -10.3064  -9.4536   0.8874   1.6852   2.4948   2.8298

          k = 0.0707 0.3676 0.0000 (  4504 PWs)   bands (ev):

   -21.6734 -13.0060 -10.1211  -9.3499   1.6321   2.0333   2.8741   3.6651

          k = 0.0707 0.4493 0.0000 (  4516 PWs)   bands (ev):

   -20.6548 -14.7382 -10.6301  -8.2279  -0.1832   3.4433   4.0218   4.3070

          k = 0.0707 0.5310 0.0000 (  4523 PWs)   bands (ev):

   -19.4747 -16.3696 -10.9454  -7.0952  -1.7751   3.8330   5.1792   6.0166

          k = 0.0707 0.6126 0.0000 (  4530 PWs)   bands (ev):

   -18.4955 -17.5030 -11.0523  -6.4968  -2.5328   3.7836   7.0448   7.2010

          k = 0.1415 0.2451 0.0000 (  4493 PWs)   bands (ev):

   -22.6057 -10.7877 -10.4281  -9.6632   0.7445   1.5434   2.3483   2.6918

          k = 0.1415 0.3267 0.0000 (  4487 PWs)   bands (ev):

   -21.8799 -12.1902 -10.5760  -9.5809   1.7496   2.1910   2.5669   3.3772

          k = 0.1415 0.4084 0.0000 (  4509 PWs)   bands (ev):

   -20.9591 -13.7941 -11.2561  -8.5375   0.4933   3.0353   3.8531   4.6953

          k = 0.1415 0.4901 0.0000 (  4519 PWs)   bands (ev):

   -19.8605 -15.4195 -11.7040  -7.3781  -1.1616   4.5832   5.1923   5.4048

          k = 0.1415 0.5718 0.0000 (  4507 PWs)   bands (ev):

   -18.6594 -16.9017 -11.9277  -6.3837  -2.4199   5.0608   6.4223   7.1113

          k = 0.2122 0.3676 0.0000 (  4489 PWs)   bands (ev):

   -21.0612 -13.2061 -11.7617  -8.6428   0.7739   2.8942   3.6949   4.5524

          k = 0.2122 0.4493 0.0000 (  4499 PWs)   bands (ev):

   -20.0581 -14.4999 -12.5877  -7.5344  -0.7255   4.3130   5.0773   6.0173

          k = 0.2122 0.5310 0.0000 (  4499 PWs)   bands (ev):

   -18.9030 -15.9408 -13.0149  -6.3822  -2.1364   5.9817   6.5240   6.8592

          k = 0.2122 0.6126 0.0000 (  4500 PWs)   bands (ev):

   -17.9544 -17.0007 -13.1484  -5.7228  -2.8868   6.7788   7.1769   7.7569

          k = 0.2830 0.4901 0.0000 (  4483 PWs)   bands (ev):

   -18.9928 -15.2795 -13.7277  -6.3944  -1.9888   5.8461   6.2886   7.5797

          k = 0.2830 0.5718 0.0000 (  4492 PWs)   bands (ev):

   -17.8419 -16.3385 -14.2732  -5.2994  -3.1413   6.6457   7.5580   8.5262

          k = 0.3537 0.6126 0.0000 (  4473 PWs)   bands (ev):

   -16.8768 -16.8768 -14.9078  -4.1994  -4.1994   6.4465   8.7855   8.7855

     the Fermi energy is    -4.1994 ev

!    total energy              =     -22.79069776 Ry
     estimated scf accuracy    <          1.3E-11 Ry
     smearing contrib. (-TS)   =      -0.00005015 Ry
     internal energy E=F+TS    =     -22.79064761 Ry

     The total energy is F=E-TS. E is the sum of the following terms:
     one-electron contribution =    -390.71124388 Ry
     hartree contribution      =     195.98421301 Ry
     xc contribution           =      -7.03141537 Ry
     ewald contribution        =     178.96779862 Ry

     convergence has been achieved in   7 iterations

     Forces acting on atoms (cartesian axes, Ry/au):

     atom    1 type  1   force =    -0.00000000   -0.00000000    0.00000000
     atom    2 type  1   force =     0.00000000    0.00000000    0.00000000

     Total force =     0.000000     Total SCF correction =     0.000000


     Computing stress (Cartesian axis) and pressure

          total   stress  (Ry/bohr**3)                   (kbar)     P=       -9.35
  -0.00004084   0.00000000  -0.00000000           -6.01        0.00       -0.00
   0.00000000  -0.00004084  -0.00000000            0.00       -6.01       -0.00
   0.00000000   0.00000000  -0.00010909            0.00        0.00      -16.05


     Writing output data file ./work/LiC492.save/
 
     init_run     :      0.13s CPU      0.15s WALL (       2 calls)
     electrons    :     12.86s CPU     14.00s WALL (       9 calls)
     update_pot   :      0.09s CPU      0.10s WALL (       7 calls)
     forces       :      0.07s CPU      0.08s WALL (       9 calls)
     stress       :      0.23s CPU      0.23s WALL (       9 calls)

     Called by init_run:
     wfcinit      :      0.09s CPU      0.10s WALL (       2 calls)
     potinit      :      0.01s CPU      0.02s WALL (       2 calls)
     hinit0       :      0.01s CPU      0.01s WALL (       2 calls)

     Called by electrons:
     c_bands      :     11.20s CPU     12.04s WALL (      79 calls)
     sum_band     :      1.46s CPU      1.57s WALL (      79 calls)
     v_of_rho     :      0.15s CPU      0.17s WALL (      85 calls)
     mix_rho      :      0.03s CPU      0.03s WALL (      79 calls)

     Called by c_bands:
     init_us_2    :      0.10s CPU      0.11s WALL (    4806 calls)
     cegterg      :     10.94s CPU     11.74s WALL (    2136 calls)

     Called by *egterg:
     cdiaghg      :      1.01s CPU      1.08s WALL (   11328 calls)
     h_psi        :      9.20s CPU      9.88s WALL (   11655 calls)
     g_psi        :      0.03s CPU      0.03s WALL (    9465 calls)

     Called by h_psi:
     h_psi:calbec :      0.35s CPU      0.38s WALL (   11655 calls)
     vloc_psi     :      8.66s CPU      9.30s WALL (   11655 calls)
     add_vuspsi   :      0.09s CPU      0.10s WALL (   11655 calls)

     General routines
     calbec       :      0.39s CPU      0.42s WALL (   12870 calls)
     fft          :      0.14s CPU      0.15s WALL (     923 calls)
     ffts         :      0.01s CPU      0.01s WALL (      79 calls)
     fftw         :      9.46s CPU     10.16s WALL (  133258 calls)
 
     Parallel routines
     fft_scatt_xy :      0.61s CPU      0.66s WALL (  134260 calls)
     fft_scatt_yz :      5.60s CPU      6.01s WALL (  134260 calls)
 
     PWSCF        :     13.47s CPU     14.97s WALL

 
   This run was terminated on:  14:19:56  19Jan2024            

=------------------------------------------------------------------------------=
   JOB DONE.
=------------------------------------------------------------------------------=
