
     Program PWSCF v.6.7MaX starts on 19Jan2024 at 14:21: 7 

     This program is part of the open-source Quantum ESPRESSO suite
     for quantum simulation of materials; please cite
         "P. Giannozzi et al., J. Phys.:Condens. Matter 21 395502 (2009);
         "P. Giannozzi et al., J. Phys.:Condens. Matter 29 465901 (2017);
          URL http://www.quantum-espresso.org", 
     in publications or presentations arising from this work. More details at
     http://www.quantum-espresso.org/quote

     Parallel version (MPI), running on    32 processors

     MPI processes distributed on     1 nodes
     R & G space division:  proc/nbgrp/npool/nimage =      32
     Waiting for input...
     Reading input from standard input

     Current dimensions of program PWSCF are:
     Max number of different atomic species (ntypx) = 10
     Max number of k-points (npk) =  40000
     Max angular momentum in pseudopotentials (lmaxx) =  3
     Message from routine read_pp_mesh:
     mesh size missing, using the one in header

     Subspace diagonalization in iterative solution of the eigenvalue problem:
     a serial algorithm will be used

 
     Parallelization info
     --------------------
     sticks:   dense  smooth     PW     G-vecs:    dense   smooth      PW
     Min          10      10      3                 1288     1288     223
     Max          12      12      4                 1313     1313     246
     Sum         349     349    109                41703    41703    7327
 


     bravais-lattice index     =            4
     lattice parameter (alat)  =       4.9800  a.u.
     unit-cell volume          =     869.8499 (a.u.)^3
     number of atoms/cell      =            2
     number of atomic types    =            1
     number of electrons       =         8.00
     number of Kohn-Sham states=            8
     kinetic-energy cutoff     =      50.0000  Ry
     charge density cutoff     =     200.0000  Ry
     scf convergence threshold =      1.0E-08
     mixing beta               =       0.7000
     number of iterations used =            8  plain     mixing
     energy convergence thresh.=      1.0E-04
     force convergence thresh. =      1.0E-08
     press convergence thresh. =      1.0E-03
     Exchange-correlation= PBE
                           (   1   4   3   4   0   0   0)
     nstep                     =           50


     celldm(1)=   4.980000  celldm(2)=   0.000000  celldm(3)=   8.132530
     celldm(4)=   0.000000  celldm(5)=   0.000000  celldm(6)=   0.000000

     crystal axes: (cart. coord. in units of alat)
               a(1) = (   1.000000   0.000000   0.000000 )  
               a(2) = (  -0.500000   0.866025   0.000000 )  
               a(3) = (   0.000000   0.000000   8.132530 )  

     reciprocal axes: (cart. coord. in units 2 pi/alat)
               b(1) = (  1.000000  0.577350  0.000000 )  
               b(2) = (  0.000000  1.154701  0.000000 )  
               b(3) = (  0.000000  0.000000  0.122963 )  


     PseudoPot. # 1 for C  read from file:
     /home/yhkim/qe-6.7/pseudo/ONCV1/1.2/C_ONCV_PBE-1.2.upf
     MD5 check sum: 1a5f83a7b1f58d24996abe00ed223ac6
     Pseudo is Norm-conserving, Zval =  4.0
     Generated using ONCVPSP code by D. R. Hamann
     Using radial grid of  602 points,  4 beta functions with: 
                l(1) =   0
                l(2) =   0
                l(3) =   1
                l(4) =   1

     atomic species   valence    mass     pseudopotential
        C              4.00    12.01070     C ( 1.00)

     24 Sym. Ops., with inversion, found



   Cartesian axes

     site n.     atom                  positions (alat units)
         1           C   tau(   1) = (  -0.0000000   0.5773503   4.0662651  )
         2           C   tau(   2) = (   0.5000000   0.2886751   4.0662651  )

     number of k points=    27  Methfessel-Paxton smearing, width (Ry)=  0.0100
                       cart. coord. in units 2pi/alat
        k(    1) = (   0.0000000   0.0000000   0.0000000), wk =   0.0088889
        k(    2) = (   0.0000000   0.0769800   0.0000000), wk =   0.0533333
        k(    3) = (   0.0000000   0.1539601   0.0000000), wk =   0.0533333
        k(    4) = (   0.0000000   0.2309401   0.0000000), wk =   0.0533333
        k(    5) = (   0.0000000   0.3079201   0.0000000), wk =   0.0533333
        k(    6) = (   0.0000000   0.3849002   0.0000000), wk =   0.0533333
        k(    7) = (   0.0000000   0.4618802   0.0000000), wk =   0.0533333
        k(    8) = (   0.0000000   0.5388603   0.0000000), wk =   0.0533333
        k(    9) = (   0.0666667   0.1154701   0.0000000), wk =   0.0533333
        k(   10) = (   0.0666667   0.1924501   0.0000000), wk =   0.1066667
        k(   11) = (   0.0666667   0.2694301   0.0000000), wk =   0.1066667
        k(   12) = (   0.0666667   0.3464102   0.0000000), wk =   0.1066667
        k(   13) = (   0.0666667   0.4233902   0.0000000), wk =   0.1066667
        k(   14) = (   0.0666667   0.5003702   0.0000000), wk =   0.1066667
        k(   15) = (   0.0666667   0.5773503   0.0000000), wk =   0.0533333
        k(   16) = (   0.1333333   0.2309401   0.0000000), wk =   0.0533333
        k(   17) = (   0.1333333   0.3079201   0.0000000), wk =   0.1066667
        k(   18) = (   0.1333333   0.3849002   0.0000000), wk =   0.1066667
        k(   19) = (   0.1333333   0.4618802   0.0000000), wk =   0.1066667
        k(   20) = (   0.1333333   0.5388603   0.0000000), wk =   0.1066667
        k(   21) = (   0.2000000   0.3464102   0.0000000), wk =   0.0533333
        k(   22) = (   0.2000000   0.4233902   0.0000000), wk =   0.1066667
        k(   23) = (   0.2000000   0.5003702   0.0000000), wk =   0.1066667
        k(   24) = (   0.2000000   0.5773503   0.0000000), wk =   0.0533333
        k(   25) = (   0.2666667   0.4618802   0.0000000), wk =   0.0533333
        k(   26) = (   0.2666667   0.5388603   0.0000000), wk =   0.1066667
        k(   27) = (   0.3333333   0.5773503   0.0000000), wk =   0.0177778

     Dense  grid:    41703 G-vectors     FFT dimensions: (  24,  24, 192)

     Estimated max dynamical RAM per process >       2.12 MB

     Estimated total dynamical RAM >      67.74 MB
 ----2D----2D----2D----2D----2D----2D----2D----2D----2D----2D----2D----2D
  The code is running with the 2D cutoff
  Please refer to:
  Sohier, T., Calandra, M., & Mauri, F. (2017), 
  Density functional perturbation theory for gated two-dimensional heterostructu
 res:
  Theoretical developments and application to flexural phonons in graphene.
  Physical Review B, 96(7), 75448. https://doi.org/10.1103/PhysRevB.96.075448
 ----2D----2D----2D----2D----2D----2D----2D----2D----2D----2D----2D----2D

     Initial potential from superposition of free atoms

     starting charge    7.98607, renormalised to    8.00000

     negative rho (up, down):  1.257E-04 0.000E+00
     Starting wfcs are random

     total cpu time spent up to now is        0.1 secs

     Self-consistent Calculation

     iteration #  1     ecut=    50.00 Ry     beta= 0.70
     Davidson diagonalization with overlap
     ethr =  1.00E-02,  avg # of iterations = 11.4

     negative rho (up, down):  7.108E-08 0.000E+00

     total cpu time spent up to now is        0.5 secs

     total energy              =     -22.73057356 Ry
     estimated scf accuracy    <       0.08733703 Ry

     iteration #  2     ecut=    50.00 Ry     beta= 0.70
     Davidson diagonalization with overlap
     ethr =  1.09E-03,  avg # of iterations =  3.0

     total cpu time spent up to now is        0.7 secs

     total energy              =     -22.74982940 Ry
     estimated scf accuracy    <       0.00214446 Ry

     iteration #  3     ecut=    50.00 Ry     beta= 0.70
     Davidson diagonalization with overlap
     c_bands:  1 eigenvalues not converged
     c_bands:  1 eigenvalues not converged
     c_bands:  1 eigenvalues not converged
     ethr =  2.68E-05,  avg # of iterations =  9.5

     total cpu time spent up to now is        1.0 secs

     total energy              =     -22.75105661 Ry
     estimated scf accuracy    <       0.00009534 Ry

     iteration #  4     ecut=    50.00 Ry     beta= 0.70
     Davidson diagonalization with overlap
     c_bands:  2 eigenvalues not converged
     c_bands:  1 eigenvalues not converged
     c_bands:  1 eigenvalues not converged
     ethr =  1.19E-06,  avg # of iterations =  7.9

     total cpu time spent up to now is        1.2 secs

     total energy              =     -22.75110582 Ry
     estimated scf accuracy    <       0.00000289 Ry

     iteration #  5     ecut=    50.00 Ry     beta= 0.70
     Davidson diagonalization with overlap
     ethr =  3.62E-08,  avg # of iterations =  4.1

     total cpu time spent up to now is        1.4 secs

     total energy              =     -22.75110849 Ry
     estimated scf accuracy    <       0.00000006 Ry

     iteration #  6     ecut=    50.00 Ry     beta= 0.70
     Davidson diagonalization with overlap
     ethr =  8.00E-10,  avg # of iterations =  2.7

     total cpu time spent up to now is        1.5 secs

     End of self-consistent calculation

          k = 0.0000 0.0000 0.0000 (  5263 PWs)   bands (ev):

   -22.7705 -11.1380  -7.8559  -7.8559  -0.9374  -0.1973   0.6042   0.9562

          k = 0.0000 0.0770 0.0000 (  5245 PWs)   bands (ev):

   -22.6776 -11.0320  -8.2573  -8.0350  -0.8122  -0.0713   0.7317   1.0826

          k = 0.0000 0.1540 0.0000 (  5227 PWs)   bands (ev):

   -22.3998 -10.7142  -9.3099  -8.4937  -0.4370   0.3062   1.1139   1.4612

          k = 0.0000 0.2309 0.0000 (  5234 PWs)   bands (ev):

   -21.9395 -10.7270 -10.1935  -9.0747   0.1876   0.9315   1.7455   1.8407

          k = 0.0000 0.3079 0.0000 (  5200 PWs)   bands (ev):

   -21.3016 -12.2877  -9.6449  -9.4820   0.8621   1.0577   1.4631   1.8276

          k = 0.0000 0.3849 0.0000 (  5186 PWs)   bands (ev):

   -20.4963 -13.8590 -10.1228  -8.6136  -0.6091   1.1299   2.1817   2.9442

          k = 0.0000 0.4619 0.0000 (  5168 PWs)   bands (ev):

   -19.5496 -15.3454 -10.4609  -7.6666  -2.0149   0.8946   3.5381   4.3031

          k = 0.0000 0.5389 0.0000 (  5172 PWs)   bands (ev):

   -18.5940 -16.5802 -10.6349  -6.8903  -3.0327   0.7707   5.1163   5.8713

          k = 0.0667 0.1155 0.0000 (  5235 PWs)   bands (ev):

   -22.4922 -10.8198  -8.9448  -8.3953  -0.5620   0.1805   0.9867   1.3352

          k = 0.0667 0.1925 0.0000 (  5234 PWs)   bands (ev):

   -22.1232 -10.4004 -10.1045  -8.9924  -0.0620   0.6829   1.4963   1.8396

          k = 0.0667 0.2694 0.0000 (  5225 PWs)   bands (ev):

   -21.5740 -11.5387  -9.7832  -9.6264   0.6866   1.3768   1.5284   2.0608

          k = 0.0667 0.3464 0.0000 (  5193 PWs)   bands (ev):

   -20.8517 -13.0734 -10.1849  -8.9895   0.0514   1.6543   1.7399   2.4410

          k = 0.0667 0.4234 0.0000 (  5173 PWs)   bands (ev):

   -19.9719 -14.5893 -10.6114  -8.0665  -1.3842   1.4242   2.9225   3.6785

          k = 0.0667 0.5004 0.0000 (  5174 PWs)   bands (ev):

   -18.9870 -15.9754 -10.8770  -7.1497  -2.6406   1.2429   4.3906   5.1356

          k = 0.0667 0.5774 0.0000 (  5180 PWs)   bands (ev):

   -18.3056 -16.7938 -10.9675  -6.6778  -3.2291   1.1808   5.9715   6.1486

          k = 0.1333 0.2309 0.0000 (  5229 PWs)   bands (ev):

   -21.6651 -11.1462  -9.8841  -9.7824   0.5622   1.3088   1.6949   2.1333

          k = 0.1333 0.3079 0.0000 (  5206 PWs)   bands (ev):

   -21.0309 -12.4136 -10.5494  -9.1802   0.4558   1.4335   2.1808   2.9962

          k = 0.1333 0.3849 0.0000 (  5185 PWs)   bands (ev):

   -20.2311 -13.8145 -11.1423  -8.3183  -0.8872   2.5377   2.7050   3.2896

          k = 0.1333 0.4619 0.0000 (  5183 PWs)   bands (ev):

   -19.2928 -15.2116 -11.5376  -7.3691  -2.1985   2.4540   3.9009   4.6105

          k = 0.1333 0.5389 0.0000 (  5157 PWs)   bands (ev):

   -18.3424 -16.4058 -11.7341  -6.5731  -3.1880   2.3308   5.4538   6.0179

          k = 0.2000 0.3464 0.0000 (  5182 PWs)   bands (ev):

   -20.3183 -13.3892 -11.5106  -8.4037  -0.6907   2.4243   3.1560   4.0389

          k = 0.2000 0.4234 0.0000 (  5176 PWs)   bands (ev):

   -19.4535 -14.5272 -12.2244  -7.4925  -1.8968   3.6457   4.1238   4.3310

          k = 0.2000 0.5004 0.0000 (  5174 PWs)   bands (ev):

   -18.4857 -15.7239 -12.6254  -6.5558  -3.0258   3.9234   5.0925   5.5319

          k = 0.2000 0.5774 0.0000 (  5170 PWs)   bands (ev):

   -17.8008 -16.4964 -12.7530  -6.0321  -3.6172   3.8602   6.0701   6.4596

          k = 0.2667 0.4619 0.0000 (  5192 PWs)   bands (ev):

   -18.5464 -15.3124 -13.1109  -6.5600  -2.9389   4.9496   5.3449   5.4076

          k = 0.2667 0.5389 0.0000 (  5184 PWs)   bands (ev):

   -17.6107 -16.1946 -13.5676  -5.6714  -3.8783   5.4564   5.6983   6.3038

          k = 0.3333 0.5774 0.0000 (  5196 PWs)   bands (ev):

   -16.7974 -16.7974 -13.9675  -4.7652  -4.7652   5.5758   6.4107   6.4108

     the Fermi energy is    -4.7652 ev

!    total energy              =     -22.75110852 Ry
     estimated scf accuracy    <          5.1E-11 Ry
     smearing contrib. (-TS)   =      -0.00005015 Ry
     internal energy E=F+TS    =     -22.75105837 Ry

     The total energy is F=E-TS. E is the sum of the following terms:
     one-electron contribution =    -338.19997665 Ry
     hartree contribution      =     169.60319688 Ry
     xc contribution           =      -6.73846213 Ry
     ewald contribution        =     152.58418353 Ry

     convergence has been achieved in   6 iterations

     Forces acting on atoms (cartesian axes, Ry/au):

     atom    1 type  1   force =    -0.00000000   -0.00000000    0.00000000
     atom    2 type  1   force =     0.00000000    0.00000000    0.00000000

     Total force =     0.000000     Total SCF correction =     0.000000


     Computing stress (Cartesian axis) and pressure

          total   stress  (Ry/bohr**3)                   (kbar)     P=      -76.22
  -0.00073294   0.00000000   0.00000000         -107.82        0.00        0.00
   0.00000000  -0.00073294   0.00000000            0.00     -107.82        0.00
   0.00000000   0.00000000  -0.00008848            0.00        0.00      -13.02


     BFGS Geometry Optimization
     Energy error            =      0.0E+00
     Gradient error          =      1.7E-26
     Cell gradient error     =      7.3E-04


     number of scf cycles    =   1
     number of bfgs steps    =   0

     enthalpy new            =     -22.7511085240 Ry

     new trust radius        =       0.1080834828 bohr
     new conv_thr            =       0.0000000100 Ry

     new unit-cell volume =    838.26470 a.u.^3 (   124.21801 Ang^3 )
     density =      0.32112 g/cm^3

CELL_PARAMETERS (alat=  4.98000000)
   0.981676553  -0.000000000   0.000000000
  -0.490838277   0.850156833   0.000000000
   0.000000000   0.000000000   8.132530120

ATOMIC_POSITIONS (crystal)
C             0.3333333333        0.6666666667        0.5000000000
C             0.6666666667        0.3333333333        0.5000000000



     Writing output data file ./work/LiC498.save/
     NEW-OLD atomic charge density approx. for the potential

     negative rho (up, down):  6.405E-06 0.000E+00
     extrapolated charge    7.69909, renormalised to    8.00000

     total cpu time spent up to now is        1.6 secs

     Self-consistent Calculation

     iteration #  1     ecut=    50.00 Ry     beta= 0.70
     Davidson diagonalization with overlap
     c_bands:  3 eigenvalues not converged
     c_bands:  3 eigenvalues not converged
     c_bands:  4 eigenvalues not converged
     c_bands:  3 eigenvalues not converged
     c_bands:  1 eigenvalues not converged
     c_bands:  1 eigenvalues not converged
     c_bands:  2 eigenvalues not converged
     c_bands:  4 eigenvalues not converged
     c_bands:  2 eigenvalues not converged
     c_bands:  2 eigenvalues not converged
     c_bands:  2 eigenvalues not converged
     c_bands:  1 eigenvalues not converged
     c_bands:  1 eigenvalues not converged
     c_bands:  1 eigenvalues not converged
     c_bands:  1 eigenvalues not converged
     c_bands:  2 eigenvalues not converged
     c_bands:  2 eigenvalues not converged
     c_bands:  1 eigenvalues not converged
     c_bands:  1 eigenvalues not converged
     c_bands:  2 eigenvalues not converged
     c_bands:  1 eigenvalues not converged
     ethr =  1.00E-06,  avg # of iterations = 19.1

     negative rho (up, down):  6.013E-07 0.000E+00

     total cpu time spent up to now is        2.1 secs

     total energy              =     -22.73777446 Ry
     estimated scf accuracy    <       0.01859415 Ry

     iteration #  2     ecut=    50.00 Ry     beta= 0.70
     Davidson diagonalization with overlap
     ethr =  2.32E-04,  avg # of iterations = 10.6

     negative rho (up, down):  1.151E-07 0.000E+00

     total cpu time spent up to now is        2.4 secs

     total energy              =     -22.77283651 Ry
     estimated scf accuracy    <       0.01626030 Ry

     iteration #  3     ecut=    50.00 Ry     beta= 0.70
     Davidson diagonalization with overlap
     ethr =  2.03E-04,  avg # of iterations =  1.0

     total cpu time spent up to now is        2.5 secs

     total energy              =     -22.77157654 Ry
     estimated scf accuracy    <       0.00351805 Ry

     iteration #  4     ecut=    50.00 Ry     beta= 0.70
     Davidson diagonalization with overlap
     ethr =  4.40E-05,  avg # of iterations =  4.0

     total cpu time spent up to now is        2.6 secs

     total energy              =     -22.77201254 Ry
     estimated scf accuracy    <       0.00007337 Ry

     iteration #  5     ecut=    50.00 Ry     beta= 0.70
     Davidson diagonalization with overlap
     ethr =  9.17E-07,  avg # of iterations =  7.5

     total cpu time spent up to now is        2.8 secs

     total energy              =     -22.77203745 Ry
     estimated scf accuracy    <       0.00000613 Ry

     iteration #  6     ecut=    50.00 Ry     beta= 0.70
     Davidson diagonalization with overlap
     ethr =  7.67E-08,  avg # of iterations =  2.0

     total cpu time spent up to now is        2.9 secs

     total energy              =     -22.77203106 Ry
     estimated scf accuracy    <       0.00001319 Ry

     iteration #  7     ecut=    50.00 Ry     beta= 0.70
     Davidson diagonalization with overlap
     ethr =  7.67E-08,  avg # of iterations =  2.0

     total cpu time spent up to now is        3.1 secs

     total energy              =     -22.77203298 Ry
     estimated scf accuracy    <       0.00000078 Ry

     iteration #  8     ecut=    50.00 Ry     beta= 0.70
     Davidson diagonalization with overlap
     ethr =  9.69E-09,  avg # of iterations =  1.1

     total cpu time spent up to now is        3.2 secs

     total energy              =     -22.77203303 Ry
     estimated scf accuracy    <       0.00000057 Ry

     iteration #  9     ecut=    50.00 Ry     beta= 0.70
     Davidson diagonalization with overlap
     ethr =  7.09E-09,  avg # of iterations =  1.8

     total cpu time spent up to now is        3.3 secs

     total energy              =     -22.77203304 Ry
     estimated scf accuracy    <       0.00000003 Ry

     iteration # 10     ecut=    50.00 Ry     beta= 0.70
     Davidson diagonalization with overlap
     ethr =  4.23E-10,  avg # of iterations =  2.4

     total cpu time spent up to now is        3.4 secs

     End of self-consistent calculation

          k = 0.0000 0.0000 0.0000 (  5263 PWs)   bands (ev):

   -23.0485 -11.3336  -7.7330  -7.7330  -0.9490  -0.1974   0.6027   0.9551

          k = 0.0000 0.0784 0.0000 (  5245 PWs)   bands (ev):

   -22.9524 -11.2225  -8.1381  -7.9230  -0.8193  -0.0665   0.7350   1.0864

          k = 0.0000 0.1568 0.0000 (  5227 PWs)   bands (ev):

   -22.6648 -10.8896  -9.2066  -8.4085  -0.4301   0.3258   1.1317   1.4799

          k = 0.0000 0.2353 0.0000 (  5234 PWs)   bands (ev):

   -22.1882 -10.6552 -10.3436  -9.0216   0.2176   0.9762   1.7922   2.1308

          k = 0.0000 0.3137 0.0000 (  5200 PWs)   bands (ev):

   -21.5270 -12.2593  -9.6217  -9.5971   1.1210   1.2899   1.9189   2.0727

          k = 0.0000 0.3921 0.0000 (  5186 PWs)   bands (ev):

   -20.6909 -13.8809 -10.1238  -8.6841  -0.2691   1.7451   2.2931   3.0700

          k = 0.0000 0.4705 0.0000 (  5168 PWs)   bands (ev):

   -19.7030 -15.4236 -10.4789  -7.6854  -1.7653   1.5189   3.6965   4.4842

          k = 0.0000 0.5489 0.0000 (  5172 PWs)   bands (ev):

   -18.6835 -16.7301 -10.6614  -6.8619  -2.8507   1.3973   5.3365   6.1218

          k = 0.0679 0.1176 0.0000 (  5235 PWs)   bands (ev):

   -22.7605 -11.0002  -8.8327  -8.3048  -0.5598   0.1951   0.9995   1.3488

          k = 0.0679 0.1960 0.0000 (  5234 PWs)   bands (ev):

   -22.3784 -10.5606 -10.0126  -8.9352  -0.0412   0.7172   1.5283   1.8727

          k = 0.0679 0.2745 0.0000 (  5225 PWs)   bands (ev):

   -21.8094 -11.4832  -9.9132  -9.6009   0.7353   1.4858   1.9668   2.3192

          k = 0.0679 0.3529 0.0000 (  5193 PWs)   bands (ev):

   -21.0603 -13.0648 -10.1859  -9.0796   0.4384   1.7637   2.3447   2.5469

          k = 0.0679 0.4313 0.0000 (  5173 PWs)   bands (ev):

   -20.1453 -14.6337 -10.6321  -8.1080  -1.0900   2.0570   3.0590   3.8340

          k = 0.0679 0.5097 0.0000 (  5174 PWs)   bands (ev):

   -19.1108 -16.0811 -10.9098  -7.1389  -2.4276   1.8804   4.5820   5.3533

          k = 0.0679 0.5881 0.0000 (  5180 PWs)   bands (ev):

   -18.3646 -16.9682 -11.0042  -6.6367  -3.0562   1.8192   6.2351   6.4060

          k = 0.1358 0.2353 0.0000 (  5229 PWs)   bands (ev):

   -21.9039 -11.0681 -10.0191  -9.7691   0.6064   1.3677   2.1894   2.1995

          k = 0.1358 0.3137 0.0000 (  5206 PWs)   bands (ev):

   -21.2465 -12.3669 -10.5728  -9.2802   0.8780   1.5103   2.2750   3.1132

          k = 0.1358 0.3921 0.0000 (  5185 PWs)   bands (ev):

   -20.4160 -13.8159 -11.1877  -8.3738  -0.5509   2.6640   3.3643   3.4290

          k = 0.1358 0.4705 0.0000 (  5183 PWs)   bands (ev):

   -19.4370 -15.2692 -11.5963  -7.3732  -1.9451   3.1234   4.0753   4.8063

          k = 0.1358 0.5489 0.0000 (  5157 PWs)   bands (ev):

   -18.4255 -16.5332 -11.7995  -6.5296  -2.9993   3.0031   5.6908   6.2862

          k = 0.2037 0.3529 0.0000 (  5182 PWs)   bands (ev):

   -20.5070 -13.3530 -11.5879  -8.4640  -0.3357   2.5387   3.2894   4.1693

          k = 0.2037 0.4313 0.0000 (  5176 PWs)   bands (ev):

   -19.6072 -14.5268 -12.3317  -7.5048  -1.6129   3.8099   4.5148   4.8491

          k = 0.2037 0.5097 0.0000 (  5174 PWs)   bands (ev):

   -18.5927 -15.7812 -12.7419  -6.5157  -2.8099   4.6441   5.3202   5.7741

          k = 0.2037 0.5881 0.0000 (  5170 PWs)   bands (ev):

   -17.8503 -16.6163 -12.8714  -5.9598  -3.4391   4.5833   6.3376   6.7948

          k = 0.2716 0.4705 0.0000 (  5192 PWs)   bands (ev):

   -18.6607 -15.3137 -13.2779  -6.5220  -2.7094   5.1728   5.5750   6.8657

          k = 0.2716 0.5489 0.0000 (  5184 PWs)   bands (ev):

   -17.6740 -16.2341 -13.7595  -5.5835  -3.7005   5.9285   6.2125   6.6723

          k = 0.3396 0.5881 0.0000 (  5196 PWs)   bands (ev):

   -16.8277 -16.8277 -14.2065  -4.6302  -4.6302   5.7878   7.0828   7.0828

     the Fermi energy is    -4.6302 ev

!    total energy              =     -22.77203305 Ry
     estimated scf accuracy    <          3.2E-09 Ry
     smearing contrib. (-TS)   =      -0.00005015 Ry
     internal energy E=F+TS    =     -22.77198290 Ry

     The total energy is F=E-TS. E is the sum of the following terms:
     one-electron contribution =    -351.05888481 Ry
     hartree contribution      =     176.06166480 Ry
     xc contribution           =      -6.81142490 Ry
     ewald contribution        =     159.03666201 Ry

     convergence has been achieved in  10 iterations

     Forces acting on atoms (cartesian axes, Ry/au):

     atom    1 type  1   force =     0.00000000    0.00000000    0.00000000
     atom    2 type  1   force =     0.00000000    0.00000000    0.00000000

     Total force =     0.000000     Total SCF correction =     0.000000


     Computing stress (Cartesian axis) and pressure

          total   stress  (Ry/bohr**3)                   (kbar)     P=      -61.80
  -0.00058651  -0.00000000   0.00000000          -86.28       -0.00        0.00
  -0.00000000  -0.00058651  -0.00000000           -0.00      -86.28       -0.00
   0.00000000   0.00000000  -0.00008740            0.00        0.00      -12.86

     Energy error            =      2.1E-02
     Gradient error          =      0.0E+00
     Cell gradient error     =      5.9E-04


     number of scf cycles    =   2
     number of bfgs steps    =   1

     enthalpy old            =     -22.7511085240 Ry
     enthalpy new            =     -22.7720330541 Ry

     CASE: enthalpy_new < enthalpy_old

     new trust radius        =       0.1188918311 bohr
     new conv_thr            =            1.0E-10 Ry

     new unit-cell volume =    804.19556 a.u.^3 (   119.16949 Ang^3 )
     density =      0.33472 g/cm^3

CELL_PARAMETERS (alat=  4.98000000)
   0.961520762   0.000000000   0.000000000
  -0.480760381   0.832701406   0.000000000
   0.000000000   0.000000000   8.132530120

ATOMIC_POSITIONS (crystal)
C             0.3333333333        0.6666666667        0.5000000000
C             0.6666666667        0.3333333333        0.5000000000



     Writing output data file ./work/LiC498.save/
     NEW-OLD atomic charge density approx. for the potential

     negative rho (up, down):  6.516E-06 0.000E+00
     extrapolated charge    7.66168, renormalised to    8.00000

     total cpu time spent up to now is        3.5 secs

     Self-consistent Calculation

     iteration #  1     ecut=    50.00 Ry     beta= 0.70
     Davidson diagonalization with overlap
     c_bands:  1 eigenvalues not converged
     c_bands:  3 eigenvalues not converged
     c_bands:  4 eigenvalues not converged
     c_bands:  3 eigenvalues not converged
     c_bands:  1 eigenvalues not converged
     c_bands:  1 eigenvalues not converged
     c_bands:  1 eigenvalues not converged
     c_bands:  2 eigenvalues not converged
     c_bands:  4 eigenvalues not converged
     c_bands:  3 eigenvalues not converged
     c_bands:  2 eigenvalues not converged
     c_bands:  2 eigenvalues not converged
     c_bands:  1 eigenvalues not converged
     c_bands:  1 eigenvalues not converged
     c_bands:  1 eigenvalues not converged
     c_bands:  3 eigenvalues not converged
     c_bands:  2 eigenvalues not converged
     c_bands:  1 eigenvalues not converged
     c_bands:  1 eigenvalues not converged
     c_bands:  1 eigenvalues not converged
     c_bands:  1 eigenvalues not converged
     c_bands:  1 eigenvalues not converged
     c_bands:  2 eigenvalues not converged
     c_bands:  1 eigenvalues not converged
     ethr =  1.00E-06,  avg # of iterations = 19.4

     negative rho (up, down):  6.463E-07 0.000E+00

     total cpu time spent up to now is        4.0 secs

     total energy              =     -22.74547931 Ry
     estimated scf accuracy    <       0.02326834 Ry

     iteration #  2     ecut=    50.00 Ry     beta= 0.70
     Davidson diagonalization with overlap
     ethr =  2.91E-04,  avg # of iterations =  9.9

     negative rho (up, down):  1.305E-07 0.000E+00

     total cpu time spent up to now is        4.3 secs

     total energy              =     -22.78976430 Ry
     estimated scf accuracy    <       0.02067822 Ry

     iteration #  3     ecut=    50.00 Ry     beta= 0.70
     Davidson diagonalization with overlap
     ethr =  2.58E-04,  avg # of iterations =  1.0

     total cpu time spent up to now is        4.4 secs

     total energy              =     -22.78827248 Ry
     estimated scf accuracy    <       0.00445725 Ry

     iteration #  4     ecut=    50.00 Ry     beta= 0.70
     Davidson diagonalization with overlap
     ethr =  5.57E-05,  avg # of iterations =  3.6

     total cpu time spent up to now is        4.6 secs

     total energy              =     -22.78871975 Ry
     estimated scf accuracy    <       0.00016424 Ry

     iteration #  5     ecut=    50.00 Ry     beta= 0.70
     Davidson diagonalization with overlap
     c_bands:  1 eigenvalues not converged
     c_bands:  1 eigenvalues not converged
     c_bands:  1 eigenvalues not converged
     c_bands:  1 eigenvalues not converged
     c_bands:  1 eigenvalues not converged
     ethr =  2.05E-06,  avg # of iterations =  8.0

     total cpu time spent up to now is        4.8 secs

     total energy              =     -22.78876399 Ry
     estimated scf accuracy    <       0.00000755 Ry

     iteration #  6     ecut=    50.00 Ry     beta= 0.70
     Davidson diagonalization with overlap
     ethr =  9.44E-08,  avg # of iterations =  3.2

     total cpu time spent up to now is        4.9 secs

     total energy              =     -22.78875127 Ry
     estimated scf accuracy    <       0.00002368 Ry

     iteration #  7     ecut=    50.00 Ry     beta= 0.70
     Davidson diagonalization with overlap
     ethr =  9.44E-08,  avg # of iterations =  2.9

     total cpu time spent up to now is        5.1 secs

     total energy              =     -22.78875552 Ry
     estimated scf accuracy    <       0.00000052 Ry

     iteration #  8     ecut=    50.00 Ry     beta= 0.70
     Davidson diagonalization with overlap
     ethr =  6.50E-09,  avg # of iterations =  1.5

     total cpu time spent up to now is        5.2 secs

     total energy              =     -22.78875551 Ry
     estimated scf accuracy    <       0.00000034 Ry

     iteration #  9     ecut=    50.00 Ry     beta= 0.70
     Davidson diagonalization with overlap
     ethr =  4.24E-09,  avg # of iterations =  1.9

     total cpu time spent up to now is        5.3 secs

     total energy              =     -22.78875553 Ry
     estimated scf accuracy    <          3.1E-09 Ry

     iteration # 10     ecut=    50.00 Ry     beta= 0.70
     Davidson diagonalization with overlap
     ethr =  3.85E-11,  avg # of iterations =  3.4

     total cpu time spent up to now is        5.4 secs

     total energy              =     -22.78875554 Ry
     estimated scf accuracy    <          1.3E-09 Ry

     iteration # 11     ecut=    50.00 Ry     beta= 0.70
     Davidson diagonalization with overlap
     ethr =  1.56E-11,  avg # of iterations =  1.7

     total cpu time spent up to now is        5.6 secs

     total energy              =     -22.78875554 Ry
     estimated scf accuracy    <          8.8E-10 Ry

     iteration # 12     ecut=    50.00 Ry     beta= 0.70
     Davidson diagonalization with overlap
     ethr =  1.10E-11,  avg # of iterations =  2.0

     total cpu time spent up to now is        5.7 secs

     total energy              =     -22.78875554 Ry
     estimated scf accuracy    <          1.5E-10 Ry

     iteration # 13     ecut=    50.00 Ry     beta= 0.70
     Davidson diagonalization with overlap
     ethr =  1.85E-12,  avg # of iterations =  1.0

     total cpu time spent up to now is        5.8 secs

     End of self-consistent calculation

          k = 0.0000 0.0000 0.0000 (  5263 PWs)   bands (ev):

   -23.3625 -11.5599  -7.5765  -7.5765  -0.9612  -0.1968   0.6018   0.9544

          k =-0.0000 0.0801 0.0000 (  5245 PWs)   bands (ev):

   -23.2627 -11.4428  -7.9876  -7.7795  -0.8261  -0.0602   0.7396   1.0914

          k =-0.0000 0.1601 0.0000 (  5227 PWs)   bands (ev):

   -22.9640 -11.0922  -9.0776  -8.2968  -0.4208   0.3493   1.1530   1.5021

          k =-0.0000 0.2402 0.0000 (  5234 PWs)   bands (ev):

   -22.4687 -10.5647 -10.5167  -8.9476   0.2540   1.0288   1.8417   2.1833

          k =-0.0000 0.3202 0.0000 (  5200 PWs)   bands (ev):

   -21.7811 -12.2198  -9.7293  -9.5831   1.1956   1.7493   2.0659   2.7393

          k =-0.0000 0.4003 0.0000 (  5186 PWs)   bands (ev):

   -20.9100 -13.8996 -10.1136  -8.7644   0.1271   2.3468   2.5356   3.2177

          k =-0.0000 0.4804 0.0000 (  5168 PWs)   bands (ev):

   -19.8754 -15.5067 -10.4885  -7.7051  -1.4751   2.2462   3.8841   4.6957

          k =-0.0000 0.5604 0.0000 (  5172 PWs)   bands (ev):

   -18.7806 -16.8975 -10.6811  -6.8259  -2.6403   2.1308   5.5947   6.4134

          k = 0.0693 0.1201 0.0000 (  5235 PWs)   bands (ev):

   -23.0634 -11.2087  -8.6926  -8.1869  -0.5558   0.2129   1.0153   1.3653

          k = 0.0693 0.2002 0.0000 (  5234 PWs)   bands (ev):

   -22.6664 -10.7456  -9.8982  -8.8563  -0.0156   0.7579   1.5665   1.9122

          k = 0.0693 0.2802 0.0000 (  5225 PWs)   bands (ev):

   -22.0750 -11.4123 -10.0630  -9.5592   0.7934   1.5667   2.3925   2.5144

          k = 0.0693 0.3603 0.0000 (  5193 PWs)   bands (ev):

   -21.2953 -13.0487 -10.1752  -9.1827   0.8898   1.8668   2.6721   3.0630

          k = 0.0693 0.4403 0.0000 (  5173 PWs)   bands (ev):

   -20.3402 -14.6786 -10.6443  -8.1543  -0.7470   2.7822   3.2297   4.0159

          k = 0.0693 0.5204 0.0000 (  5174 PWs)   bands (ev):

   -19.2491 -16.1963 -10.9360  -7.1237  -2.1801   2.6243   4.8073   5.6074

          k = 0.0693 0.6005 0.0000 (  5180 PWs)   bands (ev):

   -18.4209 -17.1702 -11.0350  -6.5857  -2.8564   2.5658   6.5425   6.7074

          k = 0.1387 0.2402 0.0000 (  5229 PWs)   bands (ev):

   -22.1732 -10.9706 -10.1747  -9.7420   0.6592   1.4371   2.2558   2.7924

          k = 0.1387 0.3202 0.0000 (  5206 PWs)   bands (ev):

   -21.4893 -12.3067 -10.5877  -9.3948   1.3728   1.6014   2.3861   3.2196

          k = 0.1387 0.4003 0.0000 (  5185 PWs)   bands (ev):

   -20.6239 -13.8123 -11.2274  -8.4367  -0.1571   2.8054   3.5922   4.1243

          k = 0.1387 0.4804 0.0000 (  5183 PWs)   bands (ev):

   -19.5987 -15.3304 -11.6509  -7.3757  -1.6490   3.8902   4.2900   5.0356

          k = 0.1387 0.5604 0.0000 (  5157 PWs)   bands (ev):

   -18.5152 -16.6766 -11.8616  -6.4759  -2.7796   3.7859   5.9679   6.6003

          k = 0.2080 0.3603 0.0000 (  5182 PWs)   bands (ev):

   -20.7192 -13.3040 -11.6662  -8.5325   0.0811   2.6737   3.4457   4.3208

          k = 0.2080 0.4403 0.0000 (  5176 PWs)   bands (ev):

   -19.7796 -14.5206 -12.4427  -7.5171  -1.2794   4.0010   4.7301   5.6362

          k = 0.2080 0.5204 0.0000 (  5174 PWs)   bands (ev):

   -18.7112 -15.8437 -12.8612  -6.4665  -2.5565   5.4328   5.6285   6.0584

          k = 0.2080 0.6005 0.0000 (  5170 PWs)   bands (ev):

   -17.8962 -16.7580 -12.9924  -5.8724  -3.2306   5.4201   6.6535   7.1671

          k = 0.2773 0.4804 0.0000 (  5192 PWs)   bands (ev):

   -18.7877 -15.3067 -13.4604  -6.4754  -2.4390   5.4293   5.8455   7.1403

          k = 0.2773 0.5604 0.0000 (  5184 PWs)   bands (ev):

   -17.7401 -16.2750 -13.9689  -5.4782  -3.4907   6.1997   6.9307   7.1985

          k = 0.3467 0.6005 0.0000 (  5196 PWs)   bands (ev):

   -16.8526 -16.8526 -14.4786  -4.4698  -4.4698   6.0374   7.7860   7.7860

     the Fermi energy is    -4.4698 ev

!    total energy              =     -22.78875554 Ry
     estimated scf accuracy    <          4.1E-11 Ry
     smearing contrib. (-TS)   =      -0.00005015 Ry
     internal energy E=F+TS    =     -22.78870539 Ry

     The total energy is F=E-TS. E is the sum of the following terms:
     one-electron contribution =    -366.08223240 Ry
     hartree contribution      =     183.60886697 Ry
     xc contribution           =      -6.89576990 Ry
     ewald contribution        =     166.58042995 Ry

     convergence has been achieved in  13 iterations

     Forces acting on atoms (cartesian axes, Ry/au):

     atom    1 type  1   force =    -0.00000000   -0.00000000    0.00000000
     atom    2 type  1   force =     0.00000000    0.00000000    0.00000000

     Total force =     0.000000     Total SCF correction =     0.000000


     Computing stress (Cartesian axis) and pressure

          total   stress  (Ry/bohr**3)                   (kbar)     P=      -42.20
  -0.00038732   0.00000000   0.00000000          -56.98        0.00        0.00
   0.00000000  -0.00038732   0.00000000            0.00      -56.98        0.00
   0.00000000   0.00000000  -0.00008606            0.00        0.00      -12.66

     Energy error            =      1.7E-02
     Gradient error          =      1.8E-26
     Cell gradient error     =      3.9E-04


     number of scf cycles    =   3
     number of bfgs steps    =   2

     enthalpy old            =     -22.7720330541 Ry
     enthalpy new            =     -22.7887555379 Ry

     CASE: enthalpy_new < enthalpy_old

     new trust radius        =       0.1783377466 bohr
     new conv_thr            =            1.0E-10 Ry

     new unit-cell volume =    754.41704 a.u.^3 (   111.79307 Ang^3 )
     density =      0.35681 g/cm^3

CELL_PARAMETERS (alat=  4.98000000)
   0.931287075   0.000000000   0.000000000
  -0.465643537   0.806518265   0.000000000
   0.000000000   0.000000000   8.132530120

ATOMIC_POSITIONS (crystal)
C             0.3333333333        0.6666666667        0.5000000000
C             0.6666666667        0.3333333333        0.5000000000



     Writing output data file ./work/LiC498.save/
     NEW-OLD atomic charge density approx. for the potential

     negative rho (up, down):  4.893E-05 0.000E+00
     extrapolated charge    7.47306, renormalised to    8.00000

     total cpu time spent up to now is        5.9 secs

     Self-consistent Calculation

     iteration #  1     ecut=    50.00 Ry     beta= 0.70
     Davidson diagonalization with overlap
     c_bands:  1 eigenvalues not converged
     c_bands:  3 eigenvalues not converged
     c_bands:  4 eigenvalues not converged
     c_bands:  2 eigenvalues not converged
     c_bands:  1 eigenvalues not converged
     c_bands:  1 eigenvalues not converged
     c_bands:  1 eigenvalues not converged
     c_bands:  1 eigenvalues not converged
     c_bands:  2 eigenvalues not converged
     c_bands:  4 eigenvalues not converged
     c_bands:  3 eigenvalues not converged
     c_bands:  2 eigenvalues not converged
     c_bands:  2 eigenvalues not converged
     c_bands:  1 eigenvalues not converged
     c_bands:  1 eigenvalues not converged
     c_bands:  1 eigenvalues not converged
     c_bands:  3 eigenvalues not converged
     c_bands:  2 eigenvalues not converged
     c_bands:  1 eigenvalues not converged
     c_bands:  1 eigenvalues not converged
     c_bands:  3 eigenvalues not converged
     c_bands:  3 eigenvalues not converged
     c_bands:  1 eigenvalues not converged
     c_bands:  1 eigenvalues not converged
     c_bands:  2 eigenvalues not converged
     c_bands:  1 eigenvalues not converged
     ethr =  1.00E-06,  avg # of iterations = 19.7

     negative rho (up, down):  1.313E-05 0.000E+00

     total cpu time spent up to now is        6.4 secs

     total energy              =     -22.70446096 Ry
     estimated scf accuracy    <       0.05028429 Ry

     iteration #  2     ecut=    50.00 Ry     beta= 0.70
     Davidson diagonalization with overlap
     ethr =  6.29E-04,  avg # of iterations =  9.9

     negative rho (up, down):  6.558E-06 0.000E+00

     total cpu time spent up to now is        6.7 secs

     total energy              =     -22.80084665 Ry
     estimated scf accuracy    <       0.04555916 Ry

     iteration #  3     ecut=    50.00 Ry     beta= 0.70
     Davidson diagonalization with overlap
     ethr =  5.69E-04,  avg # of iterations =  1.0

     negative rho (up, down):  1.892E-06 0.000E+00

     total cpu time spent up to now is        6.8 secs

     total energy              =     -22.79859437 Ry
     estimated scf accuracy    <       0.00955582 Ry

     iteration #  4     ecut=    50.00 Ry     beta= 0.70
     Davidson diagonalization with overlap
     ethr =  1.19E-04,  avg # of iterations =  2.6

     negative rho (up, down):  3.161E-08 0.000E+00

     total cpu time spent up to now is        7.0 secs

     total energy              =     -22.79868978 Ry
     estimated scf accuracy    <       0.00116146 Ry

     iteration #  5     ecut=    50.00 Ry     beta= 0.70
     Davidson diagonalization with overlap
     ethr =  1.45E-05,  avg # of iterations =  5.9

     total cpu time spent up to now is        7.1 secs

     total energy              =     -22.79889753 Ry
     estimated scf accuracy    <       0.00000808 Ry

     iteration #  6     ecut=    50.00 Ry     beta= 0.70
     Davidson diagonalization with overlap
     ethr =  1.01E-07,  avg # of iterations =  4.7

     total cpu time spent up to now is        7.3 secs

     total energy              =     -22.79889362 Ry
     estimated scf accuracy    <       0.00001488 Ry

     iteration #  7     ecut=    50.00 Ry     beta= 0.70
     Davidson diagonalization with overlap
     ethr =  1.01E-07,  avg # of iterations =  2.0

     total cpu time spent up to now is        7.4 secs

     total energy              =     -22.79889659 Ry
     estimated scf accuracy    <       0.00000022 Ry

     iteration #  8     ecut=    50.00 Ry     beta= 0.70
     Davidson diagonalization with overlap
     ethr =  2.72E-09,  avg # of iterations =  1.9

     total cpu time spent up to now is        7.6 secs

     total energy              =     -22.79889652 Ry
     estimated scf accuracy    <       0.00000016 Ry

     iteration #  9     ecut=    50.00 Ry     beta= 0.70
     Davidson diagonalization with overlap
     ethr =  2.03E-09,  avg # of iterations =  2.0

     total cpu time spent up to now is        7.7 secs

     total energy              =     -22.79889655 Ry
     estimated scf accuracy    <          9.2E-10 Ry

     iteration # 10     ecut=    50.00 Ry     beta= 0.70
     Davidson diagonalization with overlap
     ethr =  1.14E-11,  avg # of iterations =  3.6

     total cpu time spent up to now is        7.8 secs

     End of self-consistent calculation

          k = 0.0000 0.0000 0.0000 (  5263 PWs)   bands (ev):

   -23.8491 -11.9228  -7.2948  -7.2948  -0.9792  -0.1961   0.6002   0.9528

          k =-0.0000 0.0827 0.0000 (  5245 PWs)   bands (ev):

   -23.7434 -11.7962  -7.7186  -7.5196  -0.8354  -0.0502   0.7470   1.0991

          k =-0.0000 0.1653 0.0000 (  5227 PWs)   bands (ev):

   -23.4272 -11.4170  -8.8487  -8.0896  -0.4039   0.3871   1.1878   1.5377

          k =-0.0000 0.2480 0.0000 (  5234 PWs)   bands (ev):

   -22.9026 -10.7937 -10.4015  -8.8027   0.3147   1.1134   1.9220   2.2663

          k =-0.0000 0.3306 0.0000 (  5200 PWs)   bands (ev):

   -22.1738 -12.1401  -9.9399  -9.4962   1.3185   2.0922   2.6983   2.9479

          k =-0.0000 0.4133 0.0000 (  5186 PWs)   bands (ev):

   -21.2481 -13.9129 -10.0733  -8.8905   0.7683   2.5981   3.4578   3.6421

          k =-0.0000 0.4960 0.0000 (  5168 PWs)   bands (ev):

   -20.1410 -15.6212 -10.4805  -7.7325  -1.0064   3.4159   4.2014   5.0381

          k =-0.0000 0.5786 0.0000 (  5172 PWs)   bands (ev):

   -18.9258 -17.1472 -10.6895  -6.7614  -2.3030   3.3247   6.0163   6.8843

          k = 0.0716 0.1240 0.0000 (  5235 PWs)   bands (ev):

   -23.5325 -11.5430  -8.4445  -7.9694  -0.5477   0.2414   1.0409   1.3916

          k = 0.0716 0.2066 0.0000 (  5234 PWs)   bands (ev):

   -23.1121 -11.0417  -9.6958  -8.7029   0.0277   0.8236   1.6286   1.9757

          k = 0.0716 0.2893 0.0000 (  5225 PWs)   bands (ev):

   -22.4854 -11.2826 -10.3020  -9.4663   0.8896   1.6909   2.5097   2.8417

          k = 0.0716 0.3720 0.0000 (  5193 PWs)   bands (ev):

   -21.6580 -13.0077 -10.1324  -9.3461   1.6195   2.0346   2.8788   3.6796

          k = 0.0716 0.4546 0.0000 (  5173 PWs)   bands (ev):

   -20.6405 -14.7343 -10.6388  -8.2253  -0.1910   3.4428   4.0169   4.3106

          k = 0.0716 0.5373 0.0000 (  5174 PWs)   bands (ev):

   -19.4616 -16.3622 -10.9535  -7.0939  -1.7809   3.8289   5.1785   6.0184

          k = 0.0716 0.6199 0.0000 (  5180 PWs)   bands (ev):

   -18.4835 -17.4936 -11.0601  -6.4961  -2.5363   3.7802   7.0415   7.1979

          k = 0.1432 0.2480 0.0000 (  5229 PWs)   bands (ev):

   -22.5896 -10.7968 -10.4232  -9.6735   0.7469   1.5494   2.3634   2.7044

          k = 0.1432 0.3306 0.0000 (  5206 PWs)   bands (ev):

   -21.8643 -12.1953 -10.5854  -9.5770   1.7511   2.1758   2.5715   3.3915

          k = 0.1432 0.4133 0.0000 (  5185 PWs)   bands (ev):

   -20.9445 -13.7932 -11.2628  -8.5347   0.4848   3.0358   3.8569   4.7093

          k = 0.1432 0.4960 0.0000 (  5183 PWs)   bands (ev):

   -19.8471 -15.4144 -11.7096  -7.3753  -1.1675   4.5816   5.1817   5.4069

          k = 0.1432 0.5786 0.0000 (  5157 PWs)   bands (ev):

   -18.6475 -16.8934 -11.9323  -6.3827  -2.4245   5.0504   6.4199   7.1099

          k = 0.2148 0.3720 0.0000 (  5182 PWs)   bands (ev):

   -21.0463 -13.2079 -11.7678  -8.6396   0.7632   2.8949   3.6988   4.5662

          k = 0.2148 0.4546 0.0000 (  5176 PWs)   bands (ev):

   -20.0445 -14.4974 -12.5914  -7.5328  -0.7333   4.3125   5.0792   6.2689

          k = 0.2148 0.5373 0.0000 (  5174 PWs)   bands (ev):

   -18.8911 -15.9345 -13.0182  -6.3815  -2.1421   5.9787   6.5226   6.8382

          k = 0.2148 0.6199 0.0000 (  5170 PWs)   bands (ev):

   -17.9437 -16.9924 -13.1509  -5.7242  -2.8907   6.7584   7.1740   7.7497

          k = 0.2863 0.4960 0.0000 (  5192 PWs)   bands (ev):

   -18.9807 -15.2755 -13.7292  -6.3950  -1.9945   5.8437   6.2873   7.5872

          k = 0.2863 0.5786 0.0000 (  5184 PWs)   bands (ev):

   -17.8318 -16.3316 -14.2729  -5.3015  -3.1451   6.6447   7.5514   9.0295

          k = 0.3579 0.6199 0.0000 (  5196 PWs)   bands (ev):

   -16.8691 -16.8691 -14.9064  -4.2034  -4.2034   6.4466   8.7630   8.7630

     the Fermi energy is    -4.2034 ev

!    total energy              =     -22.79889655 Ry
     estimated scf accuracy    <          6.2E-11 Ry
     smearing contrib. (-TS)   =      -0.00005015 Ry
     internal energy E=F+TS    =     -22.79884640 Ry

     The total energy is F=E-TS. E is the sum of the following terms:
     one-electron contribution =    -390.51614610 Ry
     hartree contribution      =     195.88691014 Ry
     xc contribution           =      -7.03073090 Ry
     ewald contribution        =     178.86112046 Ry

     convergence has been achieved in  10 iterations

     Forces acting on atoms (cartesian axes, Ry/au):

     atom    1 type  1   force =     0.00000000    0.00000000    0.00000000
     atom    2 type  1   force =    -0.00000000   -0.00000000    0.00000000

     Total force =     0.000000     Total SCF correction =     0.000000


     Computing stress (Cartesian axis) and pressure

          total   stress  (Ry/bohr**3)                   (kbar)     P=       -3.95
   0.00000180  -0.00000000  -0.00000000            0.26       -0.00       -0.00
   0.00000000   0.00000180   0.00000000            0.00        0.26        0.00
   0.00000000  -0.00000000  -0.00008408            0.00       -0.00      -12.37

     Energy error            =      1.0E-02
     Gradient error          =      1.9E-26
     Cell gradient error     =      1.8E-06


     number of scf cycles    =   4
     number of bfgs steps    =   3

     enthalpy old            =     -22.7887555379 Ry
     enthalpy new            =     -22.7988965464 Ry

     CASE: enthalpy_new < enthalpy_old

     new trust radius        =       0.0007991048 bohr
     new conv_thr            =            1.0E-10 Ry

     new unit-cell volume =    754.63655 a.u.^3 (   111.82560 Ang^3 )
     density =      0.35670 g/cm^3

CELL_PARAMETERS (alat=  4.98000000)
   0.931422547   0.000000000   0.000000000
  -0.465711274   0.806635588   0.000000000
   0.000000000   0.000000000   8.132530120

ATOMIC_POSITIONS (crystal)
C             0.3333333333        0.6666666667        0.5000000000
C             0.6666666667        0.3333333333        0.5000000000



     Writing output data file ./work/LiC498.save/
     NEW-OLD atomic charge density approx. for the potential
     extrapolated charge    8.00232, renormalised to    8.00000

     total cpu time spent up to now is        7.9 secs

     Self-consistent Calculation

     iteration #  1     ecut=    50.00 Ry     beta= 0.70
     Davidson diagonalization with overlap
     c_bands:  1 eigenvalues not converged
     ethr =  1.00E-06,  avg # of iterations =  4.0

     Threshold (ethr) on eigenvalues was too large:
     Diagonalizing with lowered threshold

     Davidson diagonalization with overlap
     ethr =  1.90E-08,  avg # of iterations =  1.0

     total cpu time spent up to now is        8.2 secs

     total energy              =     -22.79889354 Ry
     estimated scf accuracy    <       0.00000163 Ry

     iteration #  2     ecut=    50.00 Ry     beta= 0.70
     Davidson diagonalization with overlap
     ethr =  2.04E-08,  avg # of iterations =  3.9

     total cpu time spent up to now is        8.3 secs

     total energy              =     -22.79889682 Ry
     estimated scf accuracy    <       0.00000152 Ry

     iteration #  3     ecut=    50.00 Ry     beta= 0.70
     Davidson diagonalization with overlap
     ethr =  1.90E-08,  avg # of iterations =  1.0

     total cpu time spent up to now is        8.4 secs

     total energy              =     -22.79889671 Ry
     estimated scf accuracy    <       0.00000035 Ry

     iteration #  4     ecut=    50.00 Ry     beta= 0.70
     Davidson diagonalization with overlap
     ethr =  4.42E-09,  avg # of iterations =  1.9

     total cpu time spent up to now is        8.6 secs

     total energy              =     -22.79889674 Ry
     estimated scf accuracy    <       0.00000005 Ry

     iteration #  5     ecut=    50.00 Ry     beta= 0.70
     Davidson diagonalization with overlap
     ethr =  6.18E-10,  avg # of iterations =  1.0

     total cpu time spent up to now is        8.7 secs

     total energy              =     -22.79889673 Ry
     estimated scf accuracy    <       0.00000005 Ry

     iteration #  6     ecut=    50.00 Ry     beta= 0.70
     Davidson diagonalization with overlap
     ethr =  6.18E-10,  avg # of iterations =  1.0

     total cpu time spent up to now is        8.8 secs

     total energy              =     -22.79889671 Ry
     estimated scf accuracy    <       0.00000003 Ry

     iteration #  7     ecut=    50.00 Ry     beta= 0.70
     Davidson diagonalization with overlap
     ethr =  3.55E-10,  avg # of iterations =  2.0

     total cpu time spent up to now is        8.9 secs

     total energy              =     -22.79889672 Ry
     estimated scf accuracy    <          1.9E-10 Ry

     iteration #  8     ecut=    50.00 Ry     beta= 0.70
     Davidson diagonalization with overlap
     ethr =  2.42E-12,  avg # of iterations =  2.6

     total cpu time spent up to now is        9.0 secs

     End of self-consistent calculation

          k = 0.0000 0.0000 0.0000 (  5263 PWs)   bands (ev):

   -23.8469 -11.9212  -7.2963  -7.2963  -0.9792  -0.1961   0.6002   0.9528

          k =-0.0000 0.0826 0.0000 (  5245 PWs)   bands (ev):

   -23.7413 -11.7946  -7.7201  -7.5210  -0.8354  -0.0502   0.7470   1.0991

          k =-0.0000 0.1653 0.0000 (  5227 PWs)   bands (ev):

   -23.4252 -11.4156  -8.8499  -8.0907  -0.4040   0.3869   1.1876   1.5375

          k =-0.0000 0.2479 0.0000 (  5234 PWs)   bands (ev):

   -22.9008 -10.7925 -10.4025  -8.8036   0.3144   1.1130   1.9217   2.2659

          k =-0.0000 0.3306 0.0000 (  5200 PWs)   bands (ev):

   -22.1721 -12.1406  -9.9390  -9.4968   1.3178   2.0914   2.6946   2.9471

          k =-0.0000 0.4132 0.0000 (  5186 PWs)   bands (ev):

   -21.2467 -13.9130 -10.0736  -8.8901   0.7652   2.5972   3.4567   3.6366

          k =-0.0000 0.4959 0.0000 (  5168 PWs)   bands (ev):

   -20.1399 -15.6209 -10.4807  -7.7325  -1.0087   3.4103   4.1998   5.0366

          k =-0.0000 0.5785 0.0000 (  5172 PWs)   bands (ev):

   -18.9253 -17.1462 -10.6896  -6.7618  -2.3047   3.3190   6.0143   6.8821

          k = 0.0716 0.1240 0.0000 (  5235 PWs)   bands (ev):

   -23.5304 -11.5415  -8.4458  -7.9706  -0.5478   0.2413   1.0408   1.3915

          k = 0.0716 0.2066 0.0000 (  5234 PWs)   bands (ev):

   -23.1102 -11.0404  -9.6969  -8.7038   0.0275   0.8233   1.6283   1.9754

          k = 0.0716 0.2893 0.0000 (  5225 PWs)   bands (ev):

   -22.4837 -11.2834 -10.3009  -9.4669   0.8892   1.6904   2.5092   2.8411

          k = 0.0716 0.3719 0.0000 (  5193 PWs)   bands (ev):

   -21.6565 -13.0080 -10.1328  -9.3454   1.6160   2.0338   2.8779   3.6784

          k = 0.0716 0.4546 0.0000 (  5173 PWs)   bands (ev):

   -20.6393 -14.7342 -10.6391  -8.2251  -0.1937   3.4414   4.0113   4.3093

          k = 0.0716 0.5372 0.0000 (  5174 PWs)   bands (ev):

   -19.4608 -16.3615 -10.9536  -7.0941  -1.7829   3.8231   5.1767   6.0165

          k = 0.0716 0.6199 0.0000 (  5180 PWs)   bands (ev):

   -18.4834 -17.4922 -11.0602  -6.4966  -2.5379   3.7744   7.0392   7.1956

          k = 0.1432 0.2479 0.0000 (  5229 PWs)   bands (ev):

   -22.5878 -10.7977 -10.4221  -9.6740   0.7464   1.5489   2.3630   2.7039

          k = 0.1432 0.3306 0.0000 (  5206 PWs)   bands (ev):

   -21.8627 -12.1960 -10.5856  -9.5762   1.7504   2.1720   2.5705   3.3908

          k = 0.1432 0.4132 0.0000 (  5185 PWs)   bands (ev):

   -20.9431 -13.7935 -11.2628  -8.5343   0.4817   3.0347   3.8556   4.7077

          k = 0.1432 0.4959 0.0000 (  5183 PWs)   bands (ev):

   -19.8461 -15.4142 -11.7095  -7.3754  -1.1699   4.5799   5.1758   5.4052

          k = 0.1432 0.5785 0.0000 (  5157 PWs)   bands (ev):

   -18.6470 -16.8925 -11.9322  -6.3832  -2.4262   5.0444   6.4177   7.1075

          k = 0.2147 0.3719 0.0000 (  5182 PWs)   bands (ev):

   -21.0450 -13.2085 -11.7675  -8.6392   0.7599   2.8939   3.6976   4.5651

          k = 0.2147 0.4546 0.0000 (  5176 PWs)   bands (ev):

   -20.0434 -14.4977 -12.5909  -7.5328  -0.7360   4.3110   5.0776   6.0285

          k = 0.2147 0.5372 0.0000 (  5174 PWs)   bands (ev):

   -18.8904 -15.9342 -13.0177  -6.3820  -2.1441   5.9767   6.5205   6.8320

          k = 0.2147 0.6199 0.0000 (  5170 PWs)   bands (ev):

   -17.9437 -16.9914 -13.1504  -5.7250  -2.8924   6.7521   7.1714   7.7469

          k = 0.2863 0.4959 0.0000 (  5192 PWs)   bands (ev):

   -18.9799 -15.2758 -13.7282  -6.3955  -1.9967   5.8417   6.2852   7.5852

          k = 0.2863 0.5785 0.0000 (  5184 PWs)   bands (ev):

   -17.8315 -16.3315 -14.2717  -5.3024  -3.1469   6.6426   7.5485   9.0267

          k = 0.3579 0.6199 0.0000 (  5196 PWs)   bands (ev):

   -16.8692 -16.8692 -14.9045  -4.2048  -4.2048   6.4446   8.7587   8.7587

     the Fermi energy is    -4.2048 ev

!    total energy              =     -22.79889672 Ry
     estimated scf accuracy    <          4.9E-11 Ry
     smearing contrib. (-TS)   =      -0.00005015 Ry
     internal energy E=F+TS    =     -22.79884657 Ry

     The total energy is F=E-TS. E is the sum of the following terms:
     one-electron contribution =    -390.40122774 Ry
     hartree contribution      =     195.82916633 Ry
     xc contribution           =      -7.03010450 Ry
     ewald contribution        =     178.80331934 Ry

     convergence has been achieved in   8 iterations

     Forces acting on atoms (cartesian axes, Ry/au):

     atom    1 type  1   force =     0.00000000    0.00000000    0.00000000
     atom    2 type  1   force =     0.00000000    0.00000000    0.00000000

     Total force =     0.000000     Total SCF correction =     0.000000


     Computing stress (Cartesian axis) and pressure

          total   stress  (Ry/bohr**3)                   (kbar)     P=       -4.14
  -0.00000023  -0.00000000  -0.00000000           -0.03       -0.00       -0.00
   0.00000000  -0.00000023   0.00000000            0.00       -0.03        0.00
   0.00000000  -0.00000000  -0.00008406            0.00       -0.00      -12.37

     Energy error            =      1.7E-07
     Gradient error          =      0.0E+00
     Cell gradient error     =      2.3E-07


     number of scf cycles    =   5
     number of bfgs steps    =   4

     enthalpy old            =     -22.7988965464 Ry
     enthalpy new            =     -22.7988967184 Ry

     CASE: enthalpy_new < enthalpy_old

     small trust_radius: resetting bfgs history

     new trust radius        =       0.0000314218 bohr
     new conv_thr            =            1.0E-10 Ry

     new unit-cell volume =    754.62792 a.u.^3 (   111.82432 Ang^3 )
     density =      0.35671 g/cm^3

CELL_PARAMETERS (alat=  4.98000000)
   0.931417220   0.000000000   0.000000000
  -0.465708610   0.806630974   0.000000000
   0.000000000   0.000000000   8.132530120

ATOMIC_POSITIONS (crystal)
C             0.3333333333        0.6666666667        0.5000000000
C             0.6666666667        0.3333333333        0.5000000000



     Writing output data file ./work/LiC498.save/
     NEW-OLD atomic charge density approx. for the potential
     extrapolated charge    7.99991, renormalised to    8.00000

     total cpu time spent up to now is        9.1 secs

     Self-consistent Calculation

     iteration #  1     ecut=    50.00 Ry     beta= 0.70
     Davidson diagonalization with overlap
     ethr =  1.00E-06,  avg # of iterations =  1.0

     Threshold (ethr) on eigenvalues was too large:
     Diagonalizing with lowered threshold

     Davidson diagonalization with overlap
     ethr =  2.37E-11,  avg # of iterations =  1.7

     total cpu time spent up to now is        9.3 secs

     total energy              =     -22.79889672 Ry
     estimated scf accuracy    <          2.2E-09 Ry

     iteration #  2     ecut=    50.00 Ry     beta= 0.70
     Davidson diagonalization with overlap
     ethr =  2.70E-11,  avg # of iterations =  3.0

     total cpu time spent up to now is        9.5 secs

     total energy              =     -22.79889672 Ry
     estimated scf accuracy    <          2.3E-09 Ry

     iteration #  3     ecut=    50.00 Ry     beta= 0.70
     Davidson diagonalization with overlap
     ethr =  2.70E-11,  avg # of iterations =  1.0

     total cpu time spent up to now is        9.6 secs

     total energy              =     -22.79889672 Ry
     estimated scf accuracy    <          5.9E-10 Ry

     iteration #  4     ecut=    50.00 Ry     beta= 0.70
     Davidson diagonalization with overlap
     ethr =  7.36E-12,  avg # of iterations =  2.0

     total cpu time spent up to now is        9.7 secs

     End of self-consistent calculation

          k = 0.0000 0.0000 0.0000 (  5263 PWs)   bands (ev):

   -23.8468 -11.9211  -7.2961  -7.2961  -0.9791  -0.1960   0.6002   0.9528

          k =-0.0000 0.0826 0.0000 (  5245 PWs)   bands (ev):

   -23.7412 -11.7945  -7.7198  -7.5207  -0.8353  -0.0502   0.7470   1.0991

          k =-0.0000 0.1653 0.0000 (  5227 PWs)   bands (ev):

   -23.4251 -11.4155  -8.8497  -8.0905  -0.4040   0.3870   1.1876   1.5376

          k =-0.0000 0.2479 0.0000 (  5234 PWs)   bands (ev):

   -22.9006 -10.7924 -10.4022  -8.8033   0.3145   1.1131   1.9217   2.2659

          k =-0.0000 0.3306 0.0000 (  5200 PWs)   bands (ev):

   -22.1720 -12.1404  -9.9389  -9.4965   1.3179   2.0915   2.6949   2.9471

          k =-0.0000 0.4132 0.0000 (  5186 PWs)   bands (ev):

   -21.2465 -13.9128 -10.0734  -8.8899   0.7655   2.5973   3.4568   3.6370

          k =-0.0000 0.4959 0.0000 (  5168 PWs)   bands (ev):

   -20.1397 -15.6207 -10.4804  -7.7323  -1.0084   3.4108   4.1999   5.0367

          k =-0.0000 0.5785 0.0000 (  5172 PWs)   bands (ev):

   -18.9251 -17.1461 -10.6894  -6.7616  -2.3044   3.3194   6.0145   6.8822

          k = 0.0716 0.1240 0.0000 (  5235 PWs)   bands (ev):

   -23.5303 -11.5414  -8.4455  -7.9703  -0.5477   0.2414   1.0408   1.3915

          k = 0.0716 0.2066 0.0000 (  5234 PWs)   bands (ev):

   -23.1101 -11.0403  -9.6966  -8.7035   0.0276   0.8234   1.6283   1.9754

          k = 0.0716 0.2893 0.0000 (  5225 PWs)   bands (ev):

   -22.4835 -11.2831 -10.3008  -9.4667   0.8892   1.6904   2.5092   2.8412

          k = 0.0716 0.3719 0.0000 (  5193 PWs)   bands (ev):

   -21.6563 -13.0078 -10.1326  -9.3453   1.6163   2.0339   2.8779   3.6783

          k = 0.0716 0.4546 0.0000 (  5173 PWs)   bands (ev):

   -20.6391 -14.7339 -10.6388  -8.2249  -0.1934   3.4415   4.0117   4.3094

          k = 0.0716 0.5372 0.0000 (  5174 PWs)   bands (ev):

   -19.4606 -16.3614 -10.9533  -7.0940  -1.7826   3.8236   5.1768   6.0166

          k = 0.0716 0.6199 0.0000 (  5180 PWs)   bands (ev):

   -18.4832 -17.4921 -11.0599  -6.4964  -2.5377   3.7748   7.0393   7.1957

          k = 0.1432 0.2479 0.0000 (  5229 PWs)   bands (ev):

   -22.5877 -10.7975 -10.4220  -9.6738   0.7465   1.5489   2.3630   2.7039

          k = 0.1432 0.3306 0.0000 (  5206 PWs)   bands (ev):

   -21.8626 -12.1957 -10.5853  -9.5761   1.7505   2.1723   2.5706   3.3908

          k = 0.1432 0.4132 0.0000 (  5185 PWs)   bands (ev):

   -20.9430 -13.7932 -11.2626  -8.5342   0.4820   3.0348   3.8557   4.7077

          k = 0.1432 0.4959 0.0000 (  5183 PWs)   bands (ev):

   -19.8459 -15.4139 -11.7093  -7.3752  -1.1696   4.5801   5.1762   5.4053

          k = 0.1432 0.5785 0.0000 (  5157 PWs)   bands (ev):

   -18.6468 -16.8923 -11.9320  -6.3830  -2.4260   5.0449   6.4179   7.1077

          k = 0.2147 0.3719 0.0000 (  5182 PWs)   bands (ev):

   -21.0448 -13.2083 -11.7673  -8.6390   0.7603   2.8940   3.6977   4.5651

          k = 0.2147 0.4546 0.0000 (  5176 PWs)   bands (ev):

   -20.0432 -14.4974 -12.5907  -7.5326  -0.7357   4.3111   5.0777   6.0286

          k = 0.2147 0.5372 0.0000 (  5174 PWs)   bands (ev):

   -18.8902 -15.9340 -13.0175  -6.3818  -2.1439   5.9768   6.5206   6.8324

          k = 0.2147 0.6199 0.0000 (  5170 PWs)   bands (ev):

   -17.9435 -16.9913 -13.1502  -5.7247  -2.8921   6.7525   7.1716   7.7471

          k = 0.2863 0.4959 0.0000 (  5192 PWs)   bands (ev):

   -18.9797 -15.2756 -13.7280  -6.3953  -1.9964   5.8419   6.2854   7.5852

          k = 0.2863 0.5785 0.0000 (  5184 PWs)   bands (ev):

   -17.8313 -16.3313 -14.2715  -5.3022  -3.1466   6.6428   7.5487   9.0268

          k = 0.3579 0.6199 0.0000 (  5196 PWs)   bands (ev):

   -16.8690 -16.8690 -14.9044  -4.2045  -4.2045   6.4448   8.7590   8.7590

     the Fermi energy is    -4.2045 ev

!    total energy              =     -22.79889672 Ry
     estimated scf accuracy    <          6.3E-11 Ry
     smearing contrib. (-TS)   =      -0.00005015 Ry
     internal energy E=F+TS    =     -22.79884657 Ry

     The total energy is F=E-TS. E is the sum of the following terms:
     one-electron contribution =    -390.40569231 Ry
     hartree contribution      =     195.83137698 Ry
     xc contribution           =      -7.03012290 Ry
     ewald contribution        =     178.80559166 Ry

     convergence has been achieved in   4 iterations

     Forces acting on atoms (cartesian axes, Ry/au):

     atom    1 type  1   force =     0.00000000    0.00000000    0.00000000
     atom    2 type  1   force =     0.00000000    0.00000000    0.00000000

     Total force =     0.000000     Total SCF correction =     0.000000


     Computing stress (Cartesian axis) and pressure

          total   stress  (Ry/bohr**3)                   (kbar)     P=       -4.14
  -0.00000014   0.00000000   0.00000000           -0.02        0.00        0.00
   0.00000000  -0.00000014   0.00000000            0.00       -0.02        0.00
  -0.00000000   0.00000000  -0.00008412           -0.00        0.00      -12.37

     Energy error            =      1.6E-09
     Gradient error          =      0.0E+00
     Cell gradient error     =      1.4E-07


     number of scf cycles    =   6
     number of bfgs steps    =   5

     enthalpy old            =     -22.7988967184 Ry
     enthalpy new            =     -22.7988967199 Ry

     CASE: enthalpy_new < enthalpy_old

     Message from routine bfgs:
     history already reset at previous step: stopping
     small trust_radius: resetting bfgs history

     new trust radius        =       0.0000198261 bohr
     new conv_thr            =            1.0E-10 Ry

     new unit-cell volume =    754.62247 a.u.^3 (   111.82351 Ang^3 )
     density =      0.35671 g/cm^3

CELL_PARAMETERS (alat=  4.98000000)
   0.931413859   0.000000000   0.000000000
  -0.465706930   0.806628064   0.000000000
   0.000000000   0.000000000   8.132530120

ATOMIC_POSITIONS (crystal)
C             0.3333333333        0.6666666667        0.5000000000
C             0.6666666667        0.3333333333        0.5000000000



     Writing output data file ./work/LiC498.save/
     NEW-OLD atomic charge density approx. for the potential
     extrapolated charge    7.99994, renormalised to    8.00000

     total cpu time spent up to now is        9.8 secs

     Self-consistent Calculation

     iteration #  1     ecut=    50.00 Ry     beta= 0.70
     Davidson diagonalization with overlap
     ethr =  1.00E-06,  avg # of iterations =  1.0

     Threshold (ethr) on eigenvalues was too large:
     Diagonalizing with lowered threshold

     Davidson diagonalization with overlap
     ethr =  1.44E-11,  avg # of iterations =  1.9

     total cpu time spent up to now is       10.0 secs

     total energy              =     -22.79889672 Ry
     estimated scf accuracy    <          1.3E-09 Ry

     iteration #  2     ecut=    50.00 Ry     beta= 0.70
     Davidson diagonalization with overlap
     ethr =  1.62E-11,  avg # of iterations =  2.6

     total cpu time spent up to now is       10.1 secs

     total energy              =     -22.79889672 Ry
     estimated scf accuracy    <          9.4E-10 Ry

     iteration #  3     ecut=    50.00 Ry     beta= 0.70
     Davidson diagonalization with overlap
     ethr =  1.17E-11,  avg # of iterations =  1.0

     total cpu time spent up to now is       10.2 secs

     total energy              =     -22.79889672 Ry
     estimated scf accuracy    <          2.0E-10 Ry

     iteration #  4     ecut=    50.00 Ry     beta= 0.70
     Davidson diagonalization with overlap
     ethr =  2.46E-12,  avg # of iterations =  1.0

     total cpu time spent up to now is       10.3 secs

     End of self-consistent calculation

          k = 0.0000 0.0000 0.0000 (  5263 PWs)   bands (ev):

   -23.8469 -11.9212  -7.2960  -7.2960  -0.9791  -0.1961   0.6002   0.9528

          k =-0.0000 0.0826 0.0000 (  5245 PWs)   bands (ev):

   -23.7413 -11.7946  -7.7198  -7.5207  -0.8353  -0.0502   0.7470   1.0991

          k =-0.0000 0.1653 0.0000 (  5227 PWs)   bands (ev):

   -23.4251 -11.4155  -8.8496  -8.0905  -0.4040   0.3870   1.1876   1.5376

          k =-0.0000 0.2479 0.0000 (  5234 PWs)   bands (ev):

   -22.9007 -10.7924 -10.4022  -8.8033   0.3145   1.1131   1.9217   2.2659

          k =-0.0000 0.3306 0.0000 (  5200 PWs)   bands (ev):

   -22.1720 -12.1404  -9.9389  -9.4965   1.3179   2.0915   2.6950   2.9471

          k =-0.0000 0.4132 0.0000 (  5186 PWs)   bands (ev):

   -21.2466 -13.9128 -10.0734  -8.8899   0.7656   2.5973   3.4568   3.6370

          k =-0.0000 0.4959 0.0000 (  5168 PWs)   bands (ev):

   -20.1398 -15.6207 -10.4805  -7.7323  -1.0084   3.4109   4.2000   5.0367

          k =-0.0000 0.5785 0.0000 (  5172 PWs)   bands (ev):

   -18.9251 -17.1461 -10.6894  -6.7616  -2.3044   3.3196   6.0145   6.8823

          k = 0.0716 0.1240 0.0000 (  5235 PWs)   bands (ev):

   -23.5304 -11.5415  -8.4455  -7.9703  -0.5477   0.2414   1.0408   1.3915

          k = 0.0716 0.2066 0.0000 (  5234 PWs)   bands (ev):

   -23.1101 -11.0403  -9.6966  -8.7035   0.0276   0.8234   1.6283   1.9754

          k = 0.0716 0.2893 0.0000 (  5225 PWs)   bands (ev):

   -22.4836 -11.2831 -10.3008  -9.4667   0.8892   1.6905   2.5092   2.8411

          k = 0.0716 0.3719 0.0000 (  5193 PWs)   bands (ev):

   -21.6564 -13.0078 -10.1326  -9.3453   1.6164   2.0339   2.8779   3.6783

          k = 0.0716 0.4546 0.0000 (  5173 PWs)   bands (ev):

   -20.6392 -14.7340 -10.6388  -8.2250  -0.1934   3.4416   4.0119   4.3094

          k = 0.0716 0.5372 0.0000 (  5174 PWs)   bands (ev):

   -19.4606 -16.3614 -10.9534  -7.0940  -1.7826   3.8237   5.1768   6.0166

          k = 0.0716 0.6199 0.0000 (  5180 PWs)   bands (ev):

   -18.4832 -17.4921 -11.0600  -6.4964  -2.5376   3.7749   7.0394   7.1958

          k = 0.1432 0.2479 0.0000 (  5229 PWs)   bands (ev):

   -22.5878 -10.7975 -10.4220  -9.6738   0.7465   1.5489   2.3630   2.7039

          k = 0.1432 0.3306 0.0000 (  5206 PWs)   bands (ev):

   -21.8627 -12.1957 -10.5853  -9.5761   1.7505   2.1724   2.5706   3.3908

          k = 0.1432 0.4132 0.0000 (  5185 PWs)   bands (ev):

   -20.9430 -13.7933 -11.2626  -8.5342   0.4821   3.0349   3.8558   4.7077

          k = 0.1432 0.4959 0.0000 (  5183 PWs)   bands (ev):

   -19.8460 -15.4140 -11.7093  -7.3752  -1.1696   4.5801   5.1764   5.4053

          k = 0.1432 0.5785 0.0000 (  5157 PWs)   bands (ev):

   -18.6468 -16.8924 -11.9320  -6.3830  -2.4260   5.0450   6.4179   7.1077

          k = 0.2147 0.3719 0.0000 (  5182 PWs)   bands (ev):

   -21.0448 -13.2083 -11.7673  -8.6391   0.7603   2.8940   3.6977   4.5651

          k = 0.2147 0.4546 0.0000 (  5176 PWs)   bands (ev):

   -20.0432 -14.4974 -12.5907  -7.5326  -0.7356   4.3111   5.0777   6.0286

          k = 0.2147 0.5372 0.0000 (  5174 PWs)   bands (ev):

   -18.8902 -15.9340 -13.0175  -6.3818  -2.1438   5.9769   6.5207   6.8325

          k = 0.2147 0.6199 0.0000 (  5170 PWs)   bands (ev):

   -17.9435 -16.9913 -13.1502  -5.7247  -2.8921   6.7527   7.1717   7.7472

          k = 0.2863 0.4959 0.0000 (  5192 PWs)   bands (ev):

   -18.9797 -15.2756 -13.7280  -6.3953  -1.9964   5.8419   6.2854   7.5853

          k = 0.2863 0.5785 0.0000 (  5184 PWs)   bands (ev):

   -17.8314 -16.3313 -14.2716  -5.3022  -3.1466   6.6428   7.5487   9.0269

          k = 0.3579 0.6199 0.0000 (  5196 PWs)   bands (ev):

   -16.8690 -16.8690 -14.9044  -4.2045  -4.2045   6.4449   8.7591   8.7591

     the Fermi energy is    -4.2045 ev

!    total energy              =     -22.79889672 Ry
     estimated scf accuracy    <          5.5E-11 Ry
     smearing contrib. (-TS)   =      -0.00005015 Ry
     internal energy E=F+TS    =     -22.79884657 Ry

     The total energy is F=E-TS. E is the sum of the following terms:
     one-electron contribution =    -390.40854540 Ry
     hartree contribution      =     195.83281213 Ry
     xc contribution           =      -7.03013874 Ry
     ewald contribution        =     178.80702544 Ry

     convergence has been achieved in   4 iterations

     Forces acting on atoms (cartesian axes, Ry/au):

     atom    1 type  1   force =     0.00000000    0.00000000    0.00000000
     atom    2 type  1   force =    -0.00000000   -0.00000000    0.00000000

     Total force =     0.000000     Total SCF correction =     0.000000


     Computing stress (Cartesian axis) and pressure

          total   stress  (Ry/bohr**3)                   (kbar)     P=       -4.13
  -0.00000009   0.00000000   0.00000000           -0.01        0.00        0.00
   0.00000000  -0.00000009   0.00000000            0.00       -0.01        0.00
   0.00000000   0.00000000  -0.00008412            0.00        0.00      -12.37

     Message from routine bfgs:
     history already reset at previous step: stopping
     Energy error            =      7.2E-10
     Gradient error          =      1.9E-26
     Cell gradient error     =      9.5E-08


     bfgs converged in   7 scf cycles and   6 bfgs steps
     (criteria: energy <  1.0E-04 Ry, force <  1.0E-08Ry/Bohr, cell <  1.0E-03kbar)

     End of BFGS Geometry Optimization

     Final enthalpy =     -22.7988967207 Ry

     File ./work/LiC498.bfgs deleted, as requested
Begin final coordinates
     new unit-cell volume =    754.62247 a.u.^3 (   111.82351 Ang^3 )
     density =      0.35671 g/cm^3

CELL_PARAMETERS (alat=  4.98000000)
   0.931413859   0.000000000   0.000000000
  -0.465706930   0.806628064   0.000000000
   0.000000000   0.000000000   8.132530120

ATOMIC_POSITIONS (crystal)
C             0.3333333333        0.6666666667        0.5000000000
C             0.6666666667        0.3333333333        0.5000000000
End final coordinates



     Writing output data file ./work/LiC498.save/

     Final scf calculation at the relaxed structure.
     The G-vectors are recalculated for the final unit cell
     Results may differ from those at the preceding step.
 
     Parallelization info
     --------------------
     sticks:   dense  smooth     PW     G-vecs:    dense   smooth      PW
     Min           9       9      2                 1117     1117     170
     Max          10      10      3                 1146     1146     215
     Sum         301     301     91                36087    36087    6409
 


     bravais-lattice index     =            4
     lattice parameter (alat)  =       4.9800  a.u.
     unit-cell volume          =     754.6225 (a.u.)^3
     number of atoms/cell      =            2
     number of atomic types    =            1
     number of electrons       =         8.00
     number of Kohn-Sham states=            8
     kinetic-energy cutoff     =      50.0000  Ry
     charge density cutoff     =     200.0000  Ry
     scf convergence threshold =      1.0E-10
     mixing beta               =       0.7000
     number of iterations used =            8  plain     mixing
     press convergence thresh. =      1.0E-03
     Exchange-correlation= PBE
                           (   1   4   3   4   0   0   0)

     celldm(1)=   4.980000  celldm(2)=   0.000000  celldm(3)=   8.132530
     celldm(4)=   0.000000  celldm(5)=   0.000000  celldm(6)=   0.000000

     crystal axes: (cart. coord. in units of alat)
               a(1) = (   0.931414   0.000000   0.000000 )  
               a(2) = (  -0.465707   0.806628   0.000000 )  
               a(3) = (   0.000000   0.000000   8.132530 )  

     reciprocal axes: (cart. coord. in units 2 pi/alat)
               b(1) = (  1.073637  0.619864  0.000000 )  
               b(2) = ( -0.000000  1.239729  0.000000 )  
               b(3) = (  0.000000  0.000000  0.122963 )  


     PseudoPot. # 1 for C  read from file:
     /home/yhkim/qe-6.7/pseudo/ONCV1/1.2/C_ONCV_PBE-1.2.upf
     MD5 check sum: 1a5f83a7b1f58d24996abe00ed223ac6
     Pseudo is Norm-conserving, Zval =  4.0
     Generated using ONCVPSP code by D. R. Hamann
     Using radial grid of  602 points,  4 beta functions with: 
                l(1) =   0
                l(2) =   0
                l(3) =   1
                l(4) =   1

     atomic species   valence    mass     pseudopotential
        C              4.00    12.01070     C ( 1.00)

     24 Sym. Ops., with inversion, found



   Cartesian axes

     site n.     atom                  positions (alat units)
         1           C   tau(   1) = (  -0.0000000   0.5377520   4.0662651  )
         2           C   tau(   2) = (   0.4657069   0.2688760   4.0662651  )

     number of k points=    27  Methfessel-Paxton smearing, width (Ry)=  0.0100
                       cart. coord. in units 2pi/alat
        k(    1) = (   0.0000000   0.0000000   0.0000000), wk =   0.0088889
        k(    2) = (  -0.0000000   0.0826486   0.0000000), wk =   0.0533333
        k(    3) = (  -0.0000000   0.1652972   0.0000000), wk =   0.0533333
        k(    4) = (  -0.0000000   0.2479457   0.0000000), wk =   0.0533333
        k(    5) = (  -0.0000000   0.3305943   0.0000000), wk =   0.0533333
        k(    6) = (  -0.0000000   0.4132429   0.0000000), wk =   0.0533333
        k(    7) = (  -0.0000000   0.4958915   0.0000000), wk =   0.0533333
        k(    8) = (  -0.0000000   0.5785401   0.0000000), wk =   0.0533333
        k(    9) = (   0.0715758   0.1239729   0.0000000), wk =   0.0533333
        k(   10) = (   0.0715758   0.2066215   0.0000000), wk =   0.1066667
        k(   11) = (   0.0715758   0.2892700   0.0000000), wk =   0.1066667
        k(   12) = (   0.0715758   0.3719186   0.0000000), wk =   0.1066667
        k(   13) = (   0.0715758   0.4545672   0.0000000), wk =   0.1066667
        k(   14) = (   0.0715758   0.5372158   0.0000000), wk =   0.1066667
        k(   15) = (   0.0715758   0.6198644   0.0000000), wk =   0.0533333
        k(   16) = (   0.1431515   0.2479457   0.0000000), wk =   0.0533333
        k(   17) = (   0.1431515   0.3305943   0.0000000), wk =   0.1066667
        k(   18) = (   0.1431515   0.4132429   0.0000000), wk =   0.1066667
        k(   19) = (   0.1431515   0.4958915   0.0000000), wk =   0.1066667
        k(   20) = (   0.1431515   0.5785401   0.0000000), wk =   0.1066667
        k(   21) = (   0.2147273   0.3719186   0.0000000), wk =   0.0533333
        k(   22) = (   0.2147273   0.4545672   0.0000000), wk =   0.1066667
        k(   23) = (   0.2147273   0.5372158   0.0000000), wk =   0.1066667
        k(   24) = (   0.2147273   0.6198644   0.0000000), wk =   0.0533333
        k(   25) = (   0.2863031   0.4958915   0.0000000), wk =   0.0533333
        k(   26) = (   0.2863031   0.5785401   0.0000000), wk =   0.1066667
        k(   27) = (   0.3578789   0.6198644   0.0000000), wk =   0.0177778

     Dense  grid:    36087 G-vectors     FFT dimensions: (  24,  24, 192)

     Estimated max dynamical RAM per process >       1.96 MB

     Estimated total dynamical RAM >      62.63 MB
 ----2D----2D----2D----2D----2D----2D----2D----2D----2D----2D----2D----2D
  The code is running with the 2D cutoff
  Please refer to:
  Sohier, T., Calandra, M., & Mauri, F. (2017), 
  Density functional perturbation theory for gated two-dimensional heterostructu
 res:
  Theoretical developments and application to flexural phonons in graphene.
  Physical Review B, 96(7), 75448. https://doi.org/10.1103/PhysRevB.96.075448
 ----2D----2D----2D----2D----2D----2D----2D----2D----2D----2D----2D----2D

     Initial potential from superposition of free atoms

     starting charge    7.98607, renormalised to    8.00000

     negative rho (up, down):  1.168E-04 0.000E+00
     Starting wfcs are random

     total cpu time spent up to now is       10.5 secs

     Self-consistent Calculation

     iteration #  1     ecut=    50.00 Ry     beta= 0.70
     Davidson diagonalization with overlap
     c_bands:  1 eigenvalues not converged
     c_bands:  5 eigenvalues not converged
     c_bands:  5 eigenvalues not converged
     c_bands:  4 eigenvalues not converged
     c_bands:  4 eigenvalues not converged
     c_bands:  4 eigenvalues not converged
     c_bands:  2 eigenvalues not converged
     c_bands:  2 eigenvalues not converged
     c_bands:  5 eigenvalues not converged
     c_bands:  3 eigenvalues not converged
     c_bands:  4 eigenvalues not converged
     c_bands:  4 eigenvalues not converged
     c_bands:  3 eigenvalues not converged
     c_bands:  3 eigenvalues not converged
     c_bands:  2 eigenvalues not converged
     c_bands:  4 eigenvalues not converged
     c_bands:  4 eigenvalues not converged
     c_bands:  4 eigenvalues not converged
     c_bands:  3 eigenvalues not converged
     c_bands:  3 eigenvalues not converged
     c_bands:  4 eigenvalues not converged
     c_bands:  3 eigenvalues not converged
     c_bands:  3 eigenvalues not converged
     c_bands:  3 eigenvalues not converged
     c_bands:  3 eigenvalues not converged
     c_bands:  3 eigenvalues not converged
     c_bands:  3 eigenvalues not converged
     ethr =  1.00E-06,  avg # of iterations = 21.5

     negative rho (up, down):  2.328E-05 0.000E+00

     total cpu time spent up to now is       11.2 secs

     total energy              =     -22.76050899 Ry
     estimated scf accuracy    <       0.19800679 Ry

     iteration #  2     ecut=    50.00 Ry     beta= 0.70
     Davidson diagonalization with overlap
     ethr =  2.48E-03,  avg # of iterations =  2.3

     negative rho (up, down):  3.084E-06 0.000E+00

     total cpu time spent up to now is       11.3 secs

     total energy              =     -22.79032046 Ry
     estimated scf accuracy    <       0.00233954 Ry

     iteration #  3     ecut=    50.00 Ry     beta= 0.70
     Davidson diagonalization with overlap
     c_bands:  2 eigenvalues not converged
     ethr =  2.92E-05,  avg # of iterations =  8.6

     total cpu time spent up to now is       11.5 secs

     total energy              =     -22.79071493 Ry
     estimated scf accuracy    <       0.00017293 Ry

     iteration #  4     ecut=    50.00 Ry     beta= 0.70
     Davidson diagonalization with overlap
     ethr =  2.16E-06,  avg # of iterations =  5.6

     total cpu time spent up to now is       11.7 secs

     total energy              =     -22.79072819 Ry
     estimated scf accuracy    <       0.00000128 Ry

     iteration #  5     ecut=    50.00 Ry     beta= 0.70
     Davidson diagonalization with overlap
     ethr =  1.60E-08,  avg # of iterations =  3.8

     total cpu time spent up to now is       11.8 secs

     total energy              =     -22.79072959 Ry
     estimated scf accuracy    <       0.00000004 Ry

     iteration #  6     ecut=    50.00 Ry     beta= 0.70
     Davidson diagonalization with overlap
     ethr =  4.46E-10,  avg # of iterations =  2.7

     total cpu time spent up to now is       11.9 secs

     total energy              =     -22.79072960 Ry
     estimated scf accuracy    <          7.7E-10 Ry

     iteration #  7     ecut=    50.00 Ry     beta= 0.70
     Davidson diagonalization with overlap
     ethr =  9.57E-12,  avg # of iterations =  3.1

     total cpu time spent up to now is       12.0 secs

     End of self-consistent calculation

          k = 0.0000 0.0000 0.0000 (  4483 PWs)   bands (ev):

   -23.8604 -11.9259  -7.2843  -7.2843  -0.9826  -0.2035   0.5841   0.9392

          k =-0.0000 0.0826 0.0000 (  4471 PWs)   bands (ev):

   -23.7545 -11.7980  -7.7079  -7.5073  -0.8388  -0.0575   0.7310   1.0855

          k =-0.0000 0.1653 0.0000 (  4497 PWs)   bands (ev):

   -23.4382 -11.4192  -8.8393  -8.0772  -0.4073   0.3797   1.1715   1.5239

          k =-0.0000 0.2479 0.0000 (  4479 PWs)   bands (ev):

   -22.9134 -10.7957 -10.3905  -8.7889   0.3114   1.1061   1.9057   2.2522

          k =-0.0000 0.3306 0.0000 (  4515 PWs)   bands (ev):

   -22.1845 -12.1365  -9.9424  -9.4853   1.3150   2.0859   2.6996   2.9314

          k =-0.0000 0.4132 0.0000 (  4527 PWs)   bands (ev):

   -21.2587 -13.9147 -10.0631  -8.8922   0.7692   2.5948   3.4503   3.6319

          k =-0.0000 0.4959 0.0000 (  4541 PWs)   bands (ev):

   -20.1516 -15.6264 -10.4723  -7.7336  -1.0052   3.4029   4.1967   5.0308

          k =-0.0000 0.5785 0.0000 (  4535 PWs)   bands (ev):

   -18.9362 -17.1533 -10.6819  -6.7628  -2.3038   3.3101   6.0126   6.8773

          k = 0.0716 0.1240 0.0000 (  4503 PWs)   bands (ev):

   -23.5436 -11.5448  -8.4343  -7.9595  -0.5511   0.2341   1.0247   1.3779

          k = 0.0716 0.2066 0.0000 (  4500 PWs)   bands (ev):

   -23.1231 -11.0433  -9.6852  -8.6924   0.0243   0.8163   1.6123   1.9618

          k = 0.0716 0.2893 0.0000 (  4493 PWs)   bands (ev):

   -22.4962 -11.2761 -10.3034  -9.4550   0.8862   1.6837   2.4933   2.8279

          k = 0.0716 0.3719 0.0000 (  4506 PWs)   bands (ev):

   -21.6687 -13.0067 -10.1217  -9.3477   1.6226   2.0311   2.8716   3.6626

          k = 0.0716 0.4546 0.0000 (  4518 PWs)   bands (ev):

   -20.6509 -14.7375 -10.6303  -8.2270  -0.1908   3.4396   4.0068   4.3032

          k = 0.0716 0.5372 0.0000 (  4525 PWs)   bands (ev):

   -19.4719 -16.3675 -10.9453  -7.0955  -1.7802   3.8174   5.1744   6.0113

          k = 0.0716 0.6199 0.0000 (  4530 PWs)   bands (ev):

   -18.4948 -17.4987 -11.0520  -6.4980  -2.5369   3.7678   7.0384   7.1948

          k = 0.1432 0.2479 0.0000 (  4493 PWs)   bands (ev):

   -22.6003 -10.7899 -10.4248  -9.6641   0.7434   1.5420   2.3470   2.6905

          k = 0.1432 0.3306 0.0000 (  4491 PWs)   bands (ev):

   -21.8751 -12.1918 -10.5761  -9.5787   1.7476   2.1807   2.5643   3.3748

          k = 0.1432 0.4132 0.0000 (  4511 PWs)   bands (ev):

   -20.9549 -13.7943 -11.2558  -8.5362   0.4848   3.0323   3.8497   4.6924

          k = 0.1432 0.4959 0.0000 (  4519 PWs)   bands (ev):

   -19.8573 -15.4184 -11.7033  -7.3780  -1.1678   4.5787   5.1765   5.4001

          k = 0.1432 0.5785 0.0000 (  4509 PWs)   bands (ev):

   -18.6577 -16.8990 -11.9269  -6.3849  -2.4244   5.0444   6.4164   7.1048

          k = 0.2147 0.3719 0.0000 (  4491 PWs)   bands (ev):

   -21.0570 -13.2073 -11.7605  -8.6415   0.7651   2.8913   3.6917   4.5494

          k = 0.2147 0.4546 0.0000 (  4501 PWs)   bands (ev):

   -20.0547 -14.5002 -12.5858  -7.5344  -0.7325   4.3090   5.0727   6.0129

          k = 0.2147 0.5372 0.0000 (  4501 PWs)   bands (ev):

   -18.9007 -15.9396 -13.0132  -6.3833  -2.1420   5.9761   6.5180   6.8423

          k = 0.2147 0.6199 0.0000 (  4500 PWs)   bands (ev):

   -17.9539 -16.9975 -13.1465  -5.7247  -2.8911   6.7617   7.1701   7.7494

          k = 0.2863 0.4959 0.0000 (  4487 PWs)   bands (ev):

   -18.9903 -15.2801 -13.7243  -6.3954  -1.9945   5.8408   6.2828   7.5739

          k = 0.2863 0.5785 0.0000 (  4494 PWs)   bands (ev):

   -17.8407 -16.3378 -14.2694  -5.3016  -3.1457   6.6399   7.5507   8.5090

          k = 0.3579 0.6199 0.0000 (  4485 PWs)   bands (ev):

   -16.8769 -16.8769 -14.9022  -4.2028  -4.2028   6.4412   8.7733   8.7734

     the Fermi energy is    -4.2028 ev

!    total energy              =     -22.79072960 Ry
     estimated scf accuracy    <          9.6E-12 Ry
     smearing contrib. (-TS)   =      -0.00005015 Ry
     internal energy E=F+TS    =     -22.79067945 Ry

     The total energy is F=E-TS. E is the sum of the following terms:
     one-electron contribution =    -390.39162121 Ry
     hartree contribution      =     195.82358454 Ry
     xc contribution           =      -7.02966820 Ry
     ewald contribution        =     178.80702541 Ry

     convergence has been achieved in   7 iterations

     Forces acting on atoms (cartesian axes, Ry/au):

     atom    1 type  1   force =     0.00000000    0.00000000    0.00000000
     atom    2 type  1   force =    -0.00000000   -0.00000000    0.00000000

     Total force =     0.000000     Total SCF correction =     0.000000


     Computing stress (Cartesian axis) and pressure

          total   stress  (Ry/bohr**3)                   (kbar)     P=       -9.88
  -0.00004625  -0.00000000   0.00000000           -6.80       -0.00        0.00
  -0.00000000  -0.00004625   0.00000000           -0.00       -6.80        0.00
  -0.00000000  -0.00000000  -0.00010893           -0.00       -0.00      -16.02


     Writing output data file ./work/LiC498.save/
 
     init_run     :      0.13s CPU      0.15s WALL (       2 calls)
     electrons    :     10.52s CPU     11.48s WALL (       8 calls)
     update_pot   :      0.08s CPU      0.09s WALL (       6 calls)
     forces       :      0.07s CPU      0.07s WALL (       8 calls)
     stress       :      0.20s CPU      0.20s WALL (       8 calls)

     Called by init_run:
     wfcinit      :      0.09s CPU      0.10s WALL (       2 calls)
     potinit      :      0.01s CPU      0.02s WALL (       2 calls)
     hinit0       :      0.01s CPU      0.01s WALL (       2 calls)

     Called by electrons:
     c_bands      :      9.18s CPU      9.88s WALL (      65 calls)
     sum_band     :      1.19s CPU      1.27s WALL (      65 calls)
     v_of_rho     :      0.12s CPU      0.14s WALL (      70 calls)
     mix_rho      :      0.02s CPU      0.02s WALL (      65 calls)

     Called by c_bands:
     init_us_2    :      0.09s CPU      0.09s WALL (    3996 calls)
     cegterg      :      8.95s CPU      9.62s WALL (    1757 calls)

     Called by *egterg:
     cdiaghg      :      0.82s CPU      0.88s WALL (    9206 calls)
     h_psi        :      7.55s CPU      8.12s WALL (    9505 calls)
     g_psi        :      0.02s CPU      0.03s WALL (    7694 calls)

     Called by h_psi:
     h_psi:calbec :      0.31s CPU      0.33s WALL (    9505 calls)
     vloc_psi     :      7.08s CPU      7.61s WALL (    9505 calls)
     add_vuspsi   :      0.08s CPU      0.08s WALL (    9505 calls)

     General routines
     calbec       :      0.34s CPU      0.36s WALL (   10585 calls)
     fft          :      0.12s CPU      0.13s WALL (     765 calls)
     ffts         :      0.01s CPU      0.01s WALL (      65 calls)
     fftw         :      7.71s CPU      8.29s WALL (  111940 calls)
 
     Parallel routines
     fft_scatt_xy :      0.51s CPU      0.55s WALL (  112770 calls)
     fft_scatt_yz :      4.48s CPU      4.81s WALL (  112770 calls)
 
     PWSCF        :     11.08s CPU     12.32s WALL

 
   This run was terminated on:  14:21:19  19Jan2024            

=------------------------------------------------------------------------------=
   JOB DONE.
=------------------------------------------------------------------------------=
