
     Program PWSCF v.6.7MaX starts on 19Jan2024 at 15:48:47 

     This program is part of the open-source Quantum ESPRESSO suite
     for quantum simulation of materials; please cite
         "P. Giannozzi et al., J. Phys.:Condens. Matter 21 395502 (2009);
         "P. Giannozzi et al., J. Phys.:Condens. Matter 29 465901 (2017);
          URL http://www.quantum-espresso.org", 
     in publications or presentations arising from this work. More details at
     http://www.quantum-espresso.org/quote

     Parallel version (MPI), running on    32 processors

     MPI processes distributed on     1 nodes
     R & G space division:  proc/nbgrp/npool/nimage =      32
     Waiting for input...
     Reading input from standard input

     Current dimensions of program PWSCF are:
     Max number of different atomic species (ntypx) = 10
     Max number of k-points (npk) =  40000
     Max angular momentum in pseudopotentials (lmaxx) =  3
     Message from routine read_pp_mesh:
     mesh size missing, using the one in header

     Subspace diagonalization in iterative solution of the eigenvalue problem:
     a serial algorithm will be used

 
     Parallelization info
     --------------------
     sticks:   dense  smooth     PW     G-vecs:    dense   smooth      PW
     Min          13      13      3                 1629     1629     243
     Max          14      14      4                 1666     1666     286
     Sum         433     433    127                52611    52611    8759
 


     bravais-lattice index     =            4
     lattice parameter (alat)  =       5.6000  a.u.
     unit-cell volume          =    1099.9215 (a.u.)^3
     number of atoms/cell      =            2
     number of atomic types    =            1
     number of electrons       =         8.00
     number of Kohn-Sham states=            8
     kinetic-energy cutoff     =      50.0000  Ry
     charge density cutoff     =     200.0000  Ry
     scf convergence threshold =      1.0E-08
     mixing beta               =       0.7000
     number of iterations used =            8  plain     mixing
     energy convergence thresh.=      1.0E-04
     force convergence thresh. =      1.0E-08
     press convergence thresh. =      1.0E-03
     Exchange-correlation= PBE
                           (   1   4   3   4   0   0   0)
     nstep                     =           50


     celldm(1)=   5.600000  celldm(2)=   0.000000  celldm(3)=   7.232143
     celldm(4)=   0.000000  celldm(5)=   0.000000  celldm(6)=   0.000000

     crystal axes: (cart. coord. in units of alat)
               a(1) = (   1.000000   0.000000   0.000000 )  
               a(2) = (  -0.500000   0.866025   0.000000 )  
               a(3) = (   0.000000   0.000000   7.232143 )  

     reciprocal axes: (cart. coord. in units 2 pi/alat)
               b(1) = (  1.000000  0.577350  0.000000 )  
               b(2) = (  0.000000  1.154701  0.000000 )  
               b(3) = (  0.000000  0.000000  0.138272 )  


     PseudoPot. # 1 for C  read from file:
     /home/yhkim/qe-6.7/pseudo/ONCV1/1.2/C_ONCV_PBE-1.2.upf
     MD5 check sum: 1a5f83a7b1f58d24996abe00ed223ac6
     Pseudo is Norm-conserving, Zval =  4.0
     Generated using ONCVPSP code by D. R. Hamann
     Using radial grid of  602 points,  4 beta functions with: 
                l(1) =   0
                l(2) =   0
                l(3) =   1
                l(4) =   1

     atomic species   valence    mass     pseudopotential
        C              4.00    12.01070     C ( 1.00)

     24 Sym. Ops., with inversion, found



   Cartesian axes

     site n.     atom                  positions (alat units)
         1           C   tau(   1) = (  -0.0000000   0.5773503   3.6160714  )
         2           C   tau(   2) = (   0.5000000   0.2886751   3.6160714  )

     number of k points=    27  Methfessel-Paxton smearing, width (Ry)=  0.0100
                       cart. coord. in units 2pi/alat
        k(    1) = (   0.0000000   0.0000000   0.0000000), wk =   0.0088889
        k(    2) = (   0.0000000   0.0769800   0.0000000), wk =   0.0533333
        k(    3) = (   0.0000000   0.1539601   0.0000000), wk =   0.0533333
        k(    4) = (   0.0000000   0.2309401   0.0000000), wk =   0.0533333
        k(    5) = (   0.0000000   0.3079201   0.0000000), wk =   0.0533333
        k(    6) = (   0.0000000   0.3849002   0.0000000), wk =   0.0533333
        k(    7) = (   0.0000000   0.4618802   0.0000000), wk =   0.0533333
        k(    8) = (   0.0000000   0.5388603   0.0000000), wk =   0.0533333
        k(    9) = (   0.0666667   0.1154701   0.0000000), wk =   0.0533333
        k(   10) = (   0.0666667   0.1924501   0.0000000), wk =   0.1066667
        k(   11) = (   0.0666667   0.2694301   0.0000000), wk =   0.1066667
        k(   12) = (   0.0666667   0.3464102   0.0000000), wk =   0.1066667
        k(   13) = (   0.0666667   0.4233902   0.0000000), wk =   0.1066667
        k(   14) = (   0.0666667   0.5003702   0.0000000), wk =   0.1066667
        k(   15) = (   0.0666667   0.5773503   0.0000000), wk =   0.0533333
        k(   16) = (   0.1333333   0.2309401   0.0000000), wk =   0.0533333
        k(   17) = (   0.1333333   0.3079201   0.0000000), wk =   0.1066667
        k(   18) = (   0.1333333   0.3849002   0.0000000), wk =   0.1066667
        k(   19) = (   0.1333333   0.4618802   0.0000000), wk =   0.1066667
        k(   20) = (   0.1333333   0.5388603   0.0000000), wk =   0.1066667
        k(   21) = (   0.2000000   0.3464102   0.0000000), wk =   0.0533333
        k(   22) = (   0.2000000   0.4233902   0.0000000), wk =   0.1066667
        k(   23) = (   0.2000000   0.5003702   0.0000000), wk =   0.1066667
        k(   24) = (   0.2000000   0.5773503   0.0000000), wk =   0.0533333
        k(   25) = (   0.2666667   0.4618802   0.0000000), wk =   0.0533333
        k(   26) = (   0.2666667   0.5388603   0.0000000), wk =   0.1066667
        k(   27) = (   0.3333333   0.5773503   0.0000000), wk =   0.0177778

     Dense  grid:    52611 G-vectors     FFT dimensions: (  25,  25, 192)

     Estimated max dynamical RAM per process >       2.46 MB

     Estimated total dynamical RAM >      78.84 MB
 ----2D----2D----2D----2D----2D----2D----2D----2D----2D----2D----2D----2D
  The code is running with the 2D cutoff
  Please refer to:
  Sohier, T., Calandra, M., & Mauri, F. (2017), 
  Density functional perturbation theory for gated two-dimensional heterostructu
 res:
  Theoretical developments and application to flexural phonons in graphene.
  Physical Review B, 96(7), 75448. https://doi.org/10.1103/PhysRevB.96.075448
 ----2D----2D----2D----2D----2D----2D----2D----2D----2D----2D----2D----2D

     Initial potential from superposition of free atoms

     starting charge    7.98607, renormalised to    8.00000

     negative rho (up, down):  1.448E-04 0.000E+00
     Starting wfcs are random

     total cpu time spent up to now is        0.2 secs

     Self-consistent Calculation

     iteration #  1     ecut=    50.00 Ry     beta= 0.70
     Davidson diagonalization with overlap
     ethr =  1.00E-02,  avg # of iterations = 12.1

     Threshold (ethr) on eigenvalues was too large:
     Diagonalizing with lowered threshold

     Davidson diagonalization with overlap
     ethr =  3.21E-04,  avg # of iterations =  5.6

     negative rho (up, down):  2.220E-05 0.000E+00

     total cpu time spent up to now is        0.9 secs

     total energy              =     -22.54006900 Ry
     estimated scf accuracy    <       0.02892375 Ry

     iteration #  2     ecut=    50.00 Ry     beta= 0.70
     Davidson diagonalization with overlap
     ethr =  3.62E-04,  avg # of iterations =  1.2

     negative rho (up, down):  7.456E-07 0.000E+00

     total cpu time spent up to now is        1.1 secs

     total energy              =     -22.54197449 Ry
     estimated scf accuracy    <       0.00148800 Ry

     iteration #  3     ecut=    50.00 Ry     beta= 0.70
     Davidson diagonalization with overlap
     ethr =  1.86E-05,  avg # of iterations =  7.8

     total cpu time spent up to now is        1.3 secs

     total energy              =     -22.54217390 Ry
     estimated scf accuracy    <       0.00004021 Ry

     iteration #  4     ecut=    50.00 Ry     beta= 0.70
     Davidson diagonalization with overlap
     c_bands:  1 eigenvalues not converged
     ethr =  5.03E-07,  avg # of iterations =  8.7

     total cpu time spent up to now is        1.6 secs

     total energy              =     -22.54219654 Ry
     estimated scf accuracy    <       0.00000011 Ry

     iteration #  5     ecut=    50.00 Ry     beta= 0.70
     Davidson diagonalization with overlap
     ethr =  1.33E-09,  avg # of iterations =  4.7

     total cpu time spent up to now is        1.9 secs

     End of self-consistent calculation

          k = 0.0000 0.0000 0.0000 (  6607 PWs)   bands (ev):

   -21.0386 -10.0135  -8.3494  -8.3494  -3.0188  -0.8567  -0.1933  -0.1394

          k = 0.0000 0.0770 0.0000 (  6585 PWs)   bands (ev):

   -20.9653  -9.9349  -8.7773  -8.4699  -2.7150  -0.7586  -0.0947  -0.0942

          k = 0.0000 0.1540 0.0000 (  6583 PWs)   bands (ev):

   -20.7462  -9.8029  -9.7019  -8.7862  -2.2124  -0.4629   0.0531   0.2155

          k = 0.0000 0.2309 0.0000 (  6587 PWs)   bands (ev):

   -20.3844 -11.0649  -9.3219  -9.1953  -2.0561  -0.6566   0.0338   0.6929

          k = 0.0000 0.3079 0.0000 (  6555 PWs)   bands (ev):

   -19.8862 -12.3830  -9.6027  -8.8066  -2.1831  -1.5313   0.7263   1.3775

          k = 0.0000 0.3849 0.0000 (  6567 PWs)   bands (ev):

   -19.2660 -13.6618  -9.9484  -8.1852  -2.4879  -2.3803   1.6106   2.2488

          k = 0.0000 0.4619 0.0000 (  6581 PWs)   bands (ev):

   -18.5625 -14.8209 -10.1960  -7.5204  -3.4067  -2.5459   2.6774   3.2946

          k = 0.0000 0.5389 0.0000 (  6588 PWs)   bands (ev):

   -17.9337 -15.6816 -10.3249  -6.9949  -4.0692  -2.6364   3.8809   4.4667

          k = 0.0667 0.1155 0.0000 (  6583 PWs)   bands (ev):

   -20.8191  -9.7795  -9.4715  -8.7161  -2.2833  -0.5626  -0.0313   0.1031

          k = 0.0667 0.1925 0.0000 (  6572 PWs)   bands (ev):

   -20.5285 -10.5510  -9.4723  -9.1338  -1.8619  -0.3771  -0.1690   0.2940

          k = 0.0667 0.2694 0.0000 (  6574 PWs)   bands (ev):

   -20.0981 -11.7909  -9.5909  -9.0239  -1.8038  -1.1628   0.4281   1.1394

          k = 0.0667 0.3464 0.0000 (  6577 PWs)   bands (ev):

   -19.5373 -13.0583 -10.0021  -8.4522  -2.0717  -1.9548   1.2179   1.8596

          k = 0.0667 0.4234 0.0000 (  6586 PWs)   bands (ev):

   -18.8681 -14.2650 -10.3206  -7.7970  -3.0116  -2.1314   2.1942   2.8159

          k = 0.0667 0.5004 0.0000 (  6574 PWs)   bands (ev):

   -18.1641 -15.3026 -10.5191  -7.1628  -3.8331  -2.2571   3.3315   3.9221

          k = 0.0667 0.5774 0.0000 (  6556 PWs)   bands (ev):

   -17.7608 -15.8187 -10.5852  -6.8491  -4.2123  -2.3010   4.2685   4.7171

          k = 0.1333 0.2309 0.0000 (  6581 PWs)   bands (ev):

   -20.1691 -11.5171  -9.6855  -9.0969  -1.3454  -1.0289   0.2940   0.4265

          k = 0.1333 0.3079 0.0000 (  6570 PWs)   bands (ev):

   -19.6745 -12.6094 -10.2415  -8.5883  -1.8347  -1.1255   0.9836   1.0658

          k = 0.1333 0.3849 0.0000 (  6567 PWs)   bands (ev):

   -19.0583 -13.7436 -10.6948  -7.9718  -2.7190  -1.1975   1.9016   2.0988

          k = 0.1333 0.4619 0.0000 (  6559 PWs)   bands (ev):

   -18.3570 -14.8218 -11.0069  -7.3045  -3.5869  -1.3173   2.9297   3.2331

          k = 0.1333 0.5389 0.0000 (  6560 PWs)   bands (ev):

   -17.7202 -15.6559 -11.1648  -6.7632  -4.2367  -1.3915   3.7637   4.3739

          k = 0.2000 0.3464 0.0000 (  6568 PWs)   bands (ev):

   -19.1227 -13.5007 -10.9125  -8.0309  -2.6096  -0.4338   1.2030   1.8038

          k = 0.2000 0.4234 0.0000 (  6563 PWs)   bands (ev):

   -18.4628 -14.4419 -11.4370  -7.3843  -3.4294  -0.1960   1.9735   2.7753

          k = 0.2000 0.5004 0.0000 (  6555 PWs)   bands (ev):

   -17.7561 -15.3416 -11.7557  -6.7322  -4.1922  -0.1998   2.8651   3.9508

          k = 0.2000 0.5774 0.0000 (  6554 PWs)   bands (ev):

   -17.3248 -15.8417 -11.8614  -6.3781  -4.5848  -0.2169   3.2587   4.6431

          k = 0.2667 0.4619 0.0000 (  6544 PWs)   bands (ev):

   -17.7785 -15.1730 -12.0186  -6.7270  -4.1643   0.6431   2.1066   3.8285

          k = 0.2667 0.5389 0.0000 (  6525 PWs)   bands (ev):

   -17.1040 -15.8697 -12.3271  -6.1081  -4.8190   0.9601   2.5003   4.4592

          k = 0.3333 0.5774 0.0000 (  6486 PWs)   bands (ev):

   -16.4574 -16.4574 -12.5416  -5.4609  -5.4609   1.9053   1.9053   4.4336

     the Fermi energy is    -5.4609 ev

!    total energy              =     -22.54219702 Ry
     estimated scf accuracy    <          4.6E-09 Ry
     smearing contrib. (-TS)   =      -0.00005015 Ry
     internal energy E=F+TS    =     -22.54214687 Ry

     The total energy is F=E-TS. E is the sum of the following terms:
     one-electron contribution =    -267.22491656 Ry
     hartree contribution      =     133.98473601 Ry
     xc contribution           =      -6.32865129 Ry
     ewald contribution        =     117.02668497 Ry

     convergence has been achieved in   5 iterations

     Forces acting on atoms (cartesian axes, Ry/au):

     atom    1 type  1   force =     0.00000000    0.00000000    0.00000000
     atom    2 type  1   force =     0.00000000    0.00000000    0.00000000

     Total force =     0.000000     Total SCF correction =     0.000000


     Computing stress (Cartesian axis) and pressure

          total   stress  (Ry/bohr**3)                   (kbar)     P=     -109.09
  -0.00107952   0.00000000  -0.00000000         -158.80        0.00       -0.00
   0.00000000  -0.00107952   0.00000000            0.00     -158.80        0.00
  -0.00000000   0.00000000  -0.00006562           -0.00        0.00       -9.65


     BFGS Geometry Optimization
     Energy error            =      0.0E+00
     Gradient error          =      0.0E+00
     Cell gradient error     =      1.1E-03


     number of scf cycles    =   1
     number of bfgs steps    =   0

     enthalpy new            =     -22.5421970196 Ry

     new trust radius        =       0.1790117626 bohr
     new conv_thr            =       0.0000000100 Ry

     new unit-cell volume =   1041.35331 a.u.^3 (   154.31264 Ang^3 )
     density =      0.25849 g/cm^3

CELL_PARAMETERS (alat=  5.60000000)
   0.973011999   0.000000000   0.000000000
  -0.486505999   0.842653109   0.000000000
   0.000000000   0.000000000   7.232142857

ATOMIC_POSITIONS (crystal)
C             0.3333333333        0.6666666667        0.5000000000
C             0.6666666667        0.3333333333        0.5000000000



     Writing output data file ./work/LiC560.save/
     NEW-OLD atomic charge density approx. for the potential

     negative rho (up, down):  9.965E-06 0.000E+00
     extrapolated charge    7.55084, renormalised to    8.00000

     total cpu time spent up to now is        1.9 secs

     Self-consistent Calculation

     iteration #  1     ecut=    50.00 Ry     beta= 0.70
     Davidson diagonalization with overlap
     c_bands:  2 eigenvalues not converged
     c_bands:  2 eigenvalues not converged
     c_bands:  1 eigenvalues not converged
     c_bands:  1 eigenvalues not converged
     c_bands:  2 eigenvalues not converged
     c_bands:  1 eigenvalues not converged
     c_bands:  2 eigenvalues not converged
     c_bands:  2 eigenvalues not converged
     c_bands:  2 eigenvalues not converged
     c_bands:  2 eigenvalues not converged
     c_bands:  1 eigenvalues not converged
     c_bands:  1 eigenvalues not converged
     c_bands:  1 eigenvalues not converged
     c_bands:  1 eigenvalues not converged
     ethr =  1.00E-06,  avg # of iterations = 17.6

     negative rho (up, down):  1.435E-06 0.000E+00

     total cpu time spent up to now is        2.5 secs

     total energy              =     -22.54805975 Ry
     estimated scf accuracy    <       0.03293261 Ry

     iteration #  2     ecut=    50.00 Ry     beta= 0.70
     Davidson diagonalization with overlap
     ethr =  4.12E-04,  avg # of iterations =  8.6

     negative rho (up, down):  4.031E-07 0.000E+00

     total cpu time spent up to now is        2.8 secs

     total energy              =     -22.60590483 Ry
     estimated scf accuracy    <       0.02603217 Ry

     iteration #  3     ecut=    50.00 Ry     beta= 0.70
     Davidson diagonalization with overlap
     ethr =  3.25E-04,  avg # of iterations =  1.4

     total cpu time spent up to now is        2.9 secs

     total energy              =     -22.60401240 Ry
     estimated scf accuracy    <       0.00557620 Ry

     iteration #  4     ecut=    50.00 Ry     beta= 0.70
     Davidson diagonalization with overlap
     ethr =  6.97E-05,  avg # of iterations =  4.0

     total cpu time spent up to now is        3.1 secs

     total energy              =     -22.60467028 Ry
     estimated scf accuracy    <       0.00014335 Ry

     iteration #  5     ecut=    50.00 Ry     beta= 0.70
     Davidson diagonalization with overlap
     c_bands:  1 eigenvalues not converged
     ethr =  1.79E-06,  avg # of iterations =  7.9

     total cpu time spent up to now is        3.4 secs

     total energy              =     -22.60472360 Ry
     estimated scf accuracy    <       0.00000721 Ry

     iteration #  6     ecut=    50.00 Ry     beta= 0.70
     Davidson diagonalization with overlap
     ethr =  9.01E-08,  avg # of iterations =  2.4

     total cpu time spent up to now is        3.6 secs

     total energy              =     -22.60470963 Ry
     estimated scf accuracy    <       0.00003338 Ry

     iteration #  7     ecut=    50.00 Ry     beta= 0.70
     Davidson diagonalization with overlap
     ethr =  9.01E-08,  avg # of iterations =  2.0

     total cpu time spent up to now is        3.7 secs

     total energy              =     -22.60471189 Ry
     estimated scf accuracy    <       0.00000150 Ry

     iteration #  8     ecut=    50.00 Ry     beta= 0.70
     Davidson diagonalization with overlap
     ethr =  1.88E-08,  avg # of iterations =  2.0

     total cpu time spent up to now is        3.9 secs

     total energy              =     -22.60471219 Ry
     estimated scf accuracy    <       0.00000001 Ry

     iteration #  9     ecut=    50.00 Ry     beta= 0.70
     Davidson diagonalization with overlap
     ethr =  1.28E-10,  avg # of iterations =  3.7

     total cpu time spent up to now is        4.1 secs

     total energy              =     -22.60471220 Ry
     estimated scf accuracy    <       0.00000002 Ry

     iteration # 10     ecut=    50.00 Ry     beta= 0.70
     Davidson diagonalization with overlap
     ethr =  1.28E-10,  avg # of iterations =  2.0

     total cpu time spent up to now is        4.2 secs

     End of self-consistent calculation

          k = 0.0000 0.0000 0.0000 (  6607 PWs)   bands (ev):

   -21.4246 -10.2573  -8.2808  -8.2808  -1.6751  -0.8744  -0.1919   0.6256

          k =-0.0000 0.0791 0.0000 (  6585 PWs)   bands (ev):

   -21.3469 -10.1726  -8.6903  -8.4131  -1.4132  -0.7700  -0.0876   0.7324

          k =-0.0000 0.1582 0.0000 (  6583 PWs)   bands (ev):

   -21.1148  -9.9217  -9.7064  -8.7583  -1.0748  -0.4560   0.2250   0.7409

          k =-0.0000 0.2373 0.0000 (  6587 PWs)   bands (ev):

   -20.7313 -10.9956  -9.5117  -9.2026  -1.1313  -0.0573   0.0671   1.5842

          k =-0.0000 0.3165 0.0000 (  6555 PWs)   bands (ev):

   -20.2022 -12.3648  -9.6436  -8.9550  -1.3747  -1.0329   0.7968   2.3289

          k =-0.0000 0.3956 0.0000 (  6567 PWs)   bands (ev):

   -19.5413 -13.7073 -10.0167  -8.2815  -2.0950  -1.6293   1.7302   2.3983

          k =-0.0000 0.4747 0.0000 (  6581 PWs)   bands (ev):

   -18.7853 -14.9376 -10.2831  -7.5579  -3.1127  -1.8239   2.8592   3.5111

          k =-0.0000 0.5538 0.0000 (  6588 PWs)   bands (ev):

   -18.0919 -15.8731 -10.4215  -6.9813  -3.8472  -1.9271   4.1523   4.7677

          k = 0.0685 0.1187 0.0000 (  6583 PWs)   bands (ev):

   -21.1920 -10.0052  -9.3706  -8.6824  -1.0535  -0.5613   0.4907   0.9113

          k = 0.0685 0.1978 0.0000 (  6572 PWs)   bands (ev):

   -20.8841 -10.4596  -9.6741  -9.1369  -0.7927  -0.1428   0.2566   0.9118

          k = 0.0685 0.2769 0.0000 (  6574 PWs)   bands (ev):

   -20.4275 -11.7386  -9.6310  -9.1900  -0.9123  -0.6202   0.4842   1.9252

          k = 0.0685 0.3560 0.0000 (  6577 PWs)   bands (ev):

   -19.8310 -13.0636 -10.0732  -8.5713  -1.6303  -1.1554   1.3159   1.9845

          k = 0.0685 0.4351 0.0000 (  6586 PWs)   bands (ev):

   -19.1159 -14.3376 -10.4145  -7.8600  -2.6712  -1.3773   2.3474   3.0006

          k = 0.0685 0.5142 0.0000 (  6574 PWs)   bands (ev):

   -18.3527 -15.4492 -10.6272  -7.1673  -3.5806  -1.5249   3.5604   4.1815

          k = 0.0685 0.5934 0.0000 (  6556 PWs)   bands (ev):

   -17.8997 -16.0203 -10.6984  -6.8219  -4.0018  -1.5757   4.7343   5.0215

          k = 0.1370 0.2373 0.0000 (  6581 PWs)   bands (ev):

   -20.5029 -11.4406  -9.7374  -9.2689  -0.4690  -0.2818   0.3771   0.9717

          k = 0.1370 0.3165 0.0000 (  6570 PWs)   bands (ev):

   -19.9775 -12.5703 -10.3386  -8.7190  -1.3621  -0.1858   1.1073   1.7437

          k = 0.1370 0.3956 0.0000 (  6567 PWs)   bands (ev):

   -19.3211 -13.7612 -10.8233  -8.0508  -2.3395  -0.3546   2.0380   2.9574

          k = 0.1370 0.4747 0.0000 (  6559 PWs)   bands (ev):

   -18.5686 -14.9073 -11.1542  -7.3247  -3.2973  -0.5192   3.1528   3.7553

          k = 0.1370 0.5538 0.0000 (  6560 PWs)   bands (ev):

   -17.8698 -15.8133 -11.3211  -6.7314  -4.0159  -0.6115   4.3361   5.0162

          k = 0.2055 0.3560 0.0000 (  6568 PWs)   bands (ev):

   -19.3905 -13.4832 -11.0695  -8.1154  -2.2141   0.5699   1.8860   1.9347

          k = 0.2055 0.4351 0.0000 (  6563 PWs)   bands (ev):

   -18.6861 -14.4666 -11.6358  -7.4133  -3.1137   0.7312   2.7769   2.9846

          k = 0.2055 0.5142 0.0000 (  6555 PWs)   bands (ev):

   -17.9246 -15.4261 -11.9754  -6.7022  -3.9514   0.6732   3.7518   4.2749

          k = 0.2055 0.5934 0.0000 (  6554 PWs)   bands (ev):

   -17.4472 -15.9754 -12.0870  -6.3135  -4.3841   0.6414   4.1949   4.9396

          k = 0.2741 0.4747 0.0000 (  6544 PWs)   bands (ev):

   -17.9545 -15.2147 -12.2777  -6.6985  -3.9137   1.6349   2.9462   4.0888

          k = 0.2741 0.5538 0.0000 (  6525 PWs)   bands (ev):

   -17.2278 -15.9488 -12.6173  -6.0237  -4.6275   1.9151   3.4613   4.7194

          k = 0.3426 0.5934 0.0000 (  6486 PWs)   bands (ev):

   -16.5471 -16.5471 -12.8628  -5.3218  -5.3218   2.8978   2.8978   4.6743

     the Fermi energy is    -5.3218 ev

!    total energy              =     -22.60471220 Ry
     estimated scf accuracy    <          8.6E-10 Ry
     smearing contrib. (-TS)   =      -0.00005015 Ry
     internal energy E=F+TS    =     -22.60466205 Ry

     The total energy is F=E-TS. E is the sum of the following terms:
     one-electron contribution =    -282.26106788 Ry
     hartree contribution      =     141.52656519 Ry
     xc contribution           =      -6.41624981 Ry
     ewald contribution        =     124.54609045 Ry

     convergence has been achieved in  10 iterations

     Forces acting on atoms (cartesian axes, Ry/au):

     atom    1 type  1   force =     0.00000000    0.00000000    0.00000000
     atom    2 type  1   force =     0.00000000    0.00000000    0.00000000

     Total force =     0.000000     Total SCF correction =     0.000000


     Computing stress (Cartesian axis) and pressure

          total   stress  (Ry/bohr**3)                   (kbar)     P=     -106.12
  -0.00104988  -0.00000000   0.00000000         -154.44       -0.00        0.00
  -0.00000000  -0.00104988  -0.00000000           -0.00     -154.44       -0.00
   0.00000000   0.00000000  -0.00006446            0.00        0.00       -9.48

     Energy error            =      6.3E-02
     Gradient error          =      0.0E+00
     Cell gradient error     =      1.0E-03


     number of scf cycles    =   2
     number of bfgs steps    =   1

     enthalpy old            =     -22.5421970196 Ry
     enthalpy new            =     -22.6047122007 Ry

     CASE: enthalpy_new < enthalpy_old


     WARNING: bfgs curvature condition failed, Theta= 0.845
     new trust radius        =       0.1969129389 bohr
     new conv_thr            =            1.0E-10 Ry

     new unit-cell volume =    978.77886 a.u.^3 (   145.04006 Ang^3 )
     density =      0.27502 g/cm^3

CELL_PARAMETERS (alat=  5.60000000)
   0.943325197  -0.000000000   0.000000000
  -0.471662599   0.816943585   0.000000000
   0.000000000   0.000000000   7.232142857

ATOMIC_POSITIONS (crystal)
C             0.3333333333        0.6666666667        0.5000000000
C             0.6666666667        0.3333333333        0.5000000000



     Writing output data file ./work/LiC560.save/
     NEW-OLD atomic charge density approx. for the potential

     negative rho (up, down):  2.449E-05 0.000E+00
     extrapolated charge    7.48944, renormalised to    8.00000

     total cpu time spent up to now is        4.3 secs

     Self-consistent Calculation

     iteration #  1     ecut=    50.00 Ry     beta= 0.70
     Davidson diagonalization with overlap
     c_bands:  3 eigenvalues not converged
     c_bands:  2 eigenvalues not converged
     c_bands:  2 eigenvalues not converged
     c_bands:  1 eigenvalues not converged
     c_bands:  2 eigenvalues not converged
     c_bands:  2 eigenvalues not converged
     c_bands:  1 eigenvalues not converged
     c_bands:  2 eigenvalues not converged
     c_bands:  1 eigenvalues not converged
     c_bands:  2 eigenvalues not converged
     c_bands:  1 eigenvalues not converged
     c_bands:  1 eigenvalues not converged
     c_bands:  1 eigenvalues not converged
     ethr =  1.00E-06,  avg # of iterations = 17.7

     negative rho (up, down):  5.670E-06 0.000E+00

     total cpu time spent up to now is        5.0 secs

     total energy              =     -22.59503425 Ry
     estimated scf accuracy    <       0.04219056 Ry

     iteration #  2     ecut=    50.00 Ry     beta= 0.70
     Davidson diagonalization with overlap
     ethr =  5.27E-04,  avg # of iterations =  8.9

     negative rho (up, down):  2.396E-06 0.000E+00

     total cpu time spent up to now is        5.2 secs

     total energy              =     -22.66982621 Ry
     estimated scf accuracy    <       0.03378351 Ry

     iteration #  3     ecut=    50.00 Ry     beta= 0.70
     Davidson diagonalization with overlap
     ethr =  4.22E-04,  avg # of iterations =  1.5

     negative rho (up, down):  2.388E-07 0.000E+00

     total cpu time spent up to now is        5.4 secs

     total energy              =     -22.66758448 Ry
     estimated scf accuracy    <       0.00714564 Ry

     iteration #  4     ecut=    50.00 Ry     beta= 0.70
     Davidson diagonalization with overlap
     ethr =  8.93E-05,  avg # of iterations =  3.7

     total cpu time spent up to now is        5.6 secs

     total energy              =     -22.66827750 Ry
     estimated scf accuracy    <       0.00029607 Ry

     iteration #  5     ecut=    50.00 Ry     beta= 0.70
     Davidson diagonalization with overlap
     c_bands:  1 eigenvalues not converged
     c_bands:  1 eigenvalues not converged
     ethr =  3.70E-06,  avg # of iterations =  9.0

     total cpu time spent up to now is        5.8 secs

     total energy              =     -22.66835442 Ry
     estimated scf accuracy    <       0.00000611 Ry

     iteration #  6     ecut=    50.00 Ry     beta= 0.70
     Davidson diagonalization with overlap
     c_bands:  1 eigenvalues not converged
     ethr =  7.64E-08,  avg # of iterations =  3.9

     total cpu time spent up to now is        6.0 secs

     total energy              =     -22.66834970 Ry
     estimated scf accuracy    <       0.00001427 Ry

     iteration #  7     ecut=    50.00 Ry     beta= 0.70
     Davidson diagonalization with overlap
     ethr =  7.64E-08,  avg # of iterations =  2.0

     total cpu time spent up to now is        6.2 secs

     total energy              =     -22.66835052 Ry
     estimated scf accuracy    <       0.00000080 Ry

     iteration #  8     ecut=    50.00 Ry     beta= 0.70
     Davidson diagonalization with overlap
     ethr =  1.00E-08,  avg # of iterations =  2.0

     total cpu time spent up to now is        6.4 secs

     total energy              =     -22.66835066 Ry
     estimated scf accuracy    <          7.5E-09 Ry

     iteration #  9     ecut=    50.00 Ry     beta= 0.70
     Davidson diagonalization with overlap
     ethr =  9.40E-11,  avg # of iterations =  3.7

     total cpu time spent up to now is        6.5 secs

     total energy              =     -22.66835067 Ry
     estimated scf accuracy    <       0.00000001 Ry

     iteration # 10     ecut=    50.00 Ry     beta= 0.70
     Davidson diagonalization with overlap
     ethr =  9.40E-11,  avg # of iterations =  2.0

     total cpu time spent up to now is        6.7 secs

     total energy              =     -22.66835067 Ry
     estimated scf accuracy    <          1.6E-10 Ry

     iteration # 11     ecut=    50.00 Ry     beta= 0.70
     Davidson diagonalization with overlap
     ethr =  2.04E-12,  avg # of iterations =  2.3

     total cpu time spent up to now is        6.9 secs

     End of self-consistent calculation

          k = 0.0000 0.0000 0.0000 (  6607 PWs)   bands (ev):

   -21.8732 -10.5465  -8.1729  -8.1729  -0.8949  -0.1911  -0.0224   0.6256

          k = 0.0000 0.0816 0.0000 (  6585 PWs)   bands (ev):

   -21.7905 -10.4547  -8.5723  -8.3198  -0.7836  -0.0796   0.1786   0.7387

          k = 0.0000 0.1632 0.0000 (  6583 PWs)   bands (ev):

   -21.5432 -10.1821  -9.5895  -8.7006  -0.4499   0.1976   0.2541   1.0786

          k = 0.0000 0.2448 0.0000 (  6587 PWs)   bands (ev):

   -21.1341 -10.9145  -9.7361  -9.1881  -0.0883   0.1069   0.6627   0.8268

          k = 0.0000 0.3264 0.0000 (  6555 PWs)   bands (ev):

   -20.5690 -12.3445  -9.6701  -9.1296  -0.4265  -0.4261   0.8821   2.4370

          k = 0.0000 0.4080 0.0000 (  6567 PWs)   bands (ev):

   -19.8602 -13.7617 -10.0766  -8.3934  -1.6186  -0.7277   1.8752   3.4538

          k = 0.0000 0.4896 0.0000 (  6581 PWs)   bands (ev):

   -19.0417 -15.0761 -10.3659  -7.5982  -2.7582  -0.9465   3.0783   3.7703

          k = 0.0000 0.5712 0.0000 (  6588 PWs)   bands (ev):

   -18.2669 -16.1048 -10.5159  -6.9588  -3.5822  -1.0605   4.4671   5.1283

          k = 0.0707 0.1224 0.0000 (  6583 PWs)   bands (ev):

   -21.6255 -10.2728  -9.2464  -8.6177  -0.5610   0.4306   1.1299   1.7793

          k = 0.0707 0.2040 0.0000 (  6572 PWs)   bands (ev):

   -21.2972 -10.3518  -9.9129  -9.1172  -0.1165   0.4175   0.5865   1.0366

          k = 0.0707 0.2856 0.0000 (  6574 PWs)   bands (ev):

   -20.8098 -11.6782  -9.6560  -9.3858   0.0423   0.1125   0.5500   1.2540

          k = 0.0707 0.3672 0.0000 (  6577 PWs)   bands (ev):

   -20.1717 -13.0710 -10.1356  -8.7106  -1.0932  -0.2074   1.4343   2.1346

          k = 0.0707 0.4488 0.0000 (  6586 PWs)   bands (ev):

   -19.4022 -14.4242 -10.5045  -7.9315  -2.2589  -0.4672   2.5326   3.2227

          k = 0.0707 0.5304 0.0000 (  6574 PWs)   bands (ev):

   -18.5673 -15.6247 -10.7342  -7.1675  -3.2768  -0.6335   3.8300   4.4930

          k = 0.0707 0.6120 0.0000 (  6556 PWs)   bands (ev):

   -18.0483 -16.2678 -10.8114  -6.7826  -3.7503  -0.6902   5.1667   5.3875

          k = 0.1413 0.2448 0.0000 (  6581 PWs)   bands (ev):

   -20.8905 -11.3504  -9.7774  -9.4719   0.2166   0.4386   1.0041   1.6714

          k = 0.1413 0.3264 0.0000 (  6570 PWs)   bands (ev):

   -20.3290 -12.5238 -10.4327  -8.8723  -0.7848   0.9141   1.2134   1.9078

          k = 0.1413 0.4080 0.0000 (  6567 PWs)   bands (ev):

   -19.6253 -13.7821 -10.9538  -8.1417  -1.8770   0.6500   2.2031   2.8821

          k = 0.1413 0.4896 0.0000 (  6559 PWs)   bands (ev):

   -18.8118 -15.0093 -11.3065  -7.3442  -2.9457   0.4452   3.3963   4.0340

          k = 0.1413 0.5712 0.0000 (  6560 PWs)   bands (ev):

   -18.0350 -16.0052 -11.4836  -6.6871  -3.7493   0.3365   4.7365   5.2305

          k = 0.2120 0.3672 0.0000 (  6568 PWs)   bands (ev):

   -19.7006 -13.4592 -11.2369  -8.2130  -1.7308   1.7983   2.0926   2.7044

          k = 0.2120 0.4488 0.0000 (  6563 PWs)   bands (ev):

   -18.9434 -14.4921 -11.8525  -7.4437  -2.7278   1.8448   3.1734   3.8102

          k = 0.2120 0.5304 0.0000 (  6555 PWs)   bands (ev):

   -18.1155 -15.5255 -12.2149  -6.6607  -3.6573   1.7278   4.3903   5.0654

          k = 0.2120 0.6120 0.0000 (  6554 PWs)   bands (ev):

   -17.5775 -16.1396 -12.3328  -6.2295  -4.1395   1.6812   5.1480   5.3006

          k = 0.2827 0.4896 0.0000 (  6544 PWs)   bands (ev):

   -18.1550 -15.2562 -12.5699  -6.6592  -3.6058   2.8450   3.9022   4.4374

          k = 0.2827 0.5712 0.0000 (  6525 PWs)   bands (ev):

   -17.3633 -16.0359 -12.9477  -5.9162  -4.3914   3.0683   4.5658   5.0343

          k = 0.3534 0.6120 0.0000 (  6486 PWs)   bands (ev):

   -16.6414 -16.6414 -13.2355  -5.1483  -5.1483   4.0810   4.0810   4.9651

     the Fermi energy is    -5.1483 ev

!    total energy              =     -22.66835067 Ry
     estimated scf accuracy    <          5.4E-11 Ry
     smearing contrib. (-TS)   =      -0.00005015 Ry
     internal energy E=F+TS    =     -22.66830052 Ry

     The total energy is F=E-TS. E is the sum of the following terms:
     one-electron contribution =    -300.36100417 Ry
     hartree contribution      =     150.60855369 Ry
     xc contribution           =      -6.52154090 Ry
     ewald contribution        =     133.60569086 Ry

     convergence has been achieved in  11 iterations

     Forces acting on atoms (cartesian axes, Ry/au):

     atom    1 type  1   force =    -0.00000000   -0.00000000    0.00000000
     atom    2 type  1   force =     0.00000000    0.00000000    0.00000000

     Total force =     0.000000     Total SCF correction =     0.000000


     Computing stress (Cartesian axis) and pressure

          total   stress  (Ry/bohr**3)                   (kbar)     P=      -98.75
  -0.00097553   0.00000000   0.00000000         -143.51        0.00        0.00
   0.00000000  -0.00097553   0.00000000            0.00     -143.51        0.00
   0.00000000   0.00000000  -0.00006284            0.00        0.00       -9.24

     Energy error            =      6.4E-02
     Gradient error          =      1.8E-26
     Cell gradient error     =      9.8E-04


     number of scf cycles    =   3
     number of bfgs steps    =   2

     enthalpy old            =     -22.6047122007 Ry
     enthalpy new            =     -22.6683506708 Ry

     CASE: enthalpy_new < enthalpy_old

     new trust radius        =       0.2953694083 bohr
     new conv_thr            =            1.0E-10 Ry

     new unit-cell volume =    888.55231 a.u.^3 (   131.66987 Ang^3 )
     density =      0.30294 g/cm^3

CELL_PARAMETERS (alat=  5.60000000)
   0.898794995  -0.000000000   0.000000000
  -0.449397497   0.778379298   0.000000000
   0.000000000   0.000000000   7.232142857

ATOMIC_POSITIONS (crystal)
C             0.3333333333        0.6666666667        0.5000000000
C             0.6666666667        0.3333333333        0.5000000000



     Writing output data file ./work/LiC560.save/
     NEW-OLD atomic charge density approx. for the potential

     negative rho (up, down):  5.892E-05 0.000E+00
     extrapolated charge    7.18907, renormalised to    8.00000

     total cpu time spent up to now is        7.0 secs

     Self-consistent Calculation

     iteration #  1     ecut=    50.00 Ry     beta= 0.70
     Davidson diagonalization with overlap
     c_bands:  2 eigenvalues not converged
     c_bands:  1 eigenvalues not converged
     c_bands:  2 eigenvalues not converged
     c_bands:  2 eigenvalues not converged
     c_bands:  2 eigenvalues not converged
     c_bands:  2 eigenvalues not converged
     c_bands:  2 eigenvalues not converged
     c_bands:  2 eigenvalues not converged
     c_bands:  3 eigenvalues not converged
     c_bands:  2 eigenvalues not converged
     c_bands:  2 eigenvalues not converged
     c_bands:  2 eigenvalues not converged
     c_bands:  2 eigenvalues not converged
     c_bands:  2 eigenvalues not converged
     c_bands:  1 eigenvalues not converged
     c_bands:  3 eigenvalues not converged
     c_bands:  2 eigenvalues not converged
     c_bands:  2 eigenvalues not converged
     c_bands:  1 eigenvalues not converged
     c_bands:  1 eigenvalues not converged
     c_bands:  1 eigenvalues not converged
     c_bands:  1 eigenvalues not converged
     c_bands:  1 eigenvalues not converged
     ethr =  1.00E-06,  avg # of iterations = 19.3

     negative rho (up, down):  1.736E-05 0.000E+00

     total cpu time spent up to now is        7.7 secs

     total energy              =     -22.58381409 Ry
     estimated scf accuracy    <       0.09394899 Ry

     iteration #  2     ecut=    50.00 Ry     beta= 0.70
     Davidson diagonalization with overlap
     c_bands:  1 eigenvalues not converged
     ethr =  1.17E-03,  avg # of iterations = 10.0

     negative rho (up, down):  8.647E-06 0.000E+00

     total cpu time spent up to now is        8.0 secs

     total energy              =     -22.75019150 Ry
     estimated scf accuracy    <       0.07510014 Ry

     iteration #  3     ecut=    50.00 Ry     beta= 0.70
     Davidson diagonalization with overlap
     ethr =  9.39E-04,  avg # of iterations =  1.0

     negative rho (up, down):  2.633E-06 0.000E+00

     total cpu time spent up to now is        8.2 secs

     total energy              =     -22.74671994 Ry
     estimated scf accuracy    <       0.01513641 Ry

     iteration #  4     ecut=    50.00 Ry     beta= 0.70
     Davidson diagonalization with overlap
     c_bands:  1 eigenvalues not converged
     ethr =  1.89E-04,  avg # of iterations =  4.4

     total cpu time spent up to now is        8.3 secs

     total energy              =     -22.74721592 Ry
     estimated scf accuracy    <       0.00148756 Ry

     iteration #  5     ecut=    50.00 Ry     beta= 0.70
     Davidson diagonalization with overlap
     ethr =  1.86E-05,  avg # of iterations =  5.7

     total cpu time spent up to now is        8.6 secs

     total energy              =     -22.74754659 Ry
     estimated scf accuracy    <       0.00002066 Ry

     iteration #  6     ecut=    50.00 Ry     beta= 0.70
     Davidson diagonalization with overlap
     c_bands:  1 eigenvalues not converged
     c_bands:  1 eigenvalues not converged
     ethr =  2.58E-07,  avg # of iterations =  6.0

     total cpu time spent up to now is        8.8 secs

     total energy              =     -22.74754910 Ry
     estimated scf accuracy    <       0.00000551 Ry

     iteration #  7     ecut=    50.00 Ry     beta= 0.70
     Davidson diagonalization with overlap
     ethr =  6.88E-08,  avg # of iterations =  2.4

     total cpu time spent up to now is        9.0 secs

     total energy              =     -22.74755013 Ry
     estimated scf accuracy    <       0.00000001 Ry

     iteration #  8     ecut=    50.00 Ry     beta= 0.70
     Davidson diagonalization with overlap
     ethr =  1.28E-10,  avg # of iterations =  4.0

     total cpu time spent up to now is        9.2 secs

     total energy              =     -22.74755014 Ry
     estimated scf accuracy    <       0.00000005 Ry

     iteration #  9     ecut=    50.00 Ry     beta= 0.70
     Davidson diagonalization with overlap
     ethr =  1.28E-10,  avg # of iterations =  2.0

     total cpu time spent up to now is        9.3 secs

     total energy              =     -22.74755014 Ry
     estimated scf accuracy    <          2.8E-09 Ry

     iteration # 10     ecut=    50.00 Ry     beta= 0.70
     Davidson diagonalization with overlap
     ethr =  3.52E-11,  avg # of iterations =  2.0

     total cpu time spent up to now is        9.5 secs

     total energy              =     -22.74755014 Ry
     estimated scf accuracy    <          1.6E-10 Ry

     iteration # 11     ecut=    50.00 Ry     beta= 0.70
     Davidson diagonalization with overlap
     ethr =  2.02E-12,  avg # of iterations =  2.0

     total cpu time spent up to now is        9.7 secs

     End of self-consistent calculation

          k = 0.0000 0.0000 0.0000 (  6607 PWs)   bands (ev):

   -22.5913 -11.0255  -7.9319  -7.9319  -0.9260  -0.1896   0.6231   0.9719

          k = 0.0000 0.0856 0.0000 (  6585 PWs)   bands (ev):

   -22.5004 -10.9216  -8.3305  -8.1044  -0.8034  -0.0663   0.7479   1.0957

          k = 0.0000 0.1713 0.0000 (  6583 PWs)   bands (ev):

   -22.2284 -10.6125  -9.3710  -8.5475  -0.4361   0.3029   1.1221   1.4660

          k = 0.0000 0.2569 0.0000 (  6587 PWs)   bands (ev):

   -21.7779 -10.7652 -10.1058  -9.1099   0.1754   0.9137   1.7454   1.9385

          k = 0.0000 0.3426 0.0000 (  6555 PWs)   bands (ev):

   -21.1540 -12.2986  -9.6626  -9.4150   0.6122   1.0196   1.1202   2.6196

          k = 0.0000 0.4282 0.0000 (  6567 PWs)   bands (ev):

   -20.3673 -13.8395 -10.1263  -8.5722  -0.8058   0.7826   2.1256   2.8804

          k = 0.0000 0.5139 0.0000 (  6581 PWs)   bands (ev):

   -19.4455 -15.2929 -10.4551  -7.6546  -2.1576   0.5488   3.4528   4.2075

          k = 0.0000 0.5995 0.0000 (  6588 PWs)   bands (ev):

   -18.5247 -16.4871 -10.6250  -6.9056  -3.1383   0.4275   4.9948   5.7350

          k = 0.0742 0.1285 0.0000 (  6583 PWs)   bands (ev):

   -22.3189 -10.7153  -9.0108  -8.4522  -0.5585   0.1799   0.9974   1.3428

          k = 0.0742 0.2141 0.0000 (  6572 PWs)   bands (ev):

   -21.9576 -10.3069 -10.1556  -9.0297  -0.0690   0.6712   1.4963   1.8357

          k = 0.0742 0.2998 0.0000 (  6574 PWs)   bands (ev):

   -21.4203 -11.5657  -9.7072  -9.6447   0.6636   1.1688   1.4277   1.7069

          k = 0.0742 0.3854 0.0000 (  6577 PWs)   bands (ev):

   -20.7142 -13.0720 -10.1877  -8.9363  -0.1725   1.3481   1.6426   2.3887

          k = 0.0742 0.4711 0.0000 (  6586 PWs)   bands (ev):

   -19.8558 -14.5560 -10.6034  -8.0414  -1.5557   1.0687   2.8506   3.5976

          k = 0.0742 0.5567 0.0000 (  6574 PWs)   bands (ev):

   -18.8996 -15.9062 -10.8620  -7.1544  -2.7630   0.8897   4.2860   5.0186

          k = 0.0742 0.6424 0.0000 (  6556 PWs)   bands (ev):

   -18.2508 -16.6892 -10.9492  -6.7000  -3.3289   0.8287   5.8225   6.0046

          k = 0.1483 0.2569 0.0000 (  6581 PWs)   bands (ev):

   -21.5094 -11.1859  -9.8053  -9.7934   0.5419   1.2831   1.4028   2.1198

          k = 0.1483 0.3426 0.0000 (  6570 PWs)   bands (ev):

   -20.8892 -12.4333 -10.5389  -9.1216   0.2112   1.3945   2.1350   2.6298

          k = 0.1483 0.4282 0.0000 (  6567 PWs)   bands (ev):

   -20.1081 -13.8059 -11.1179  -8.2850  -1.0814   2.3011   2.4939   3.2179

          k = 0.1483 0.5139 0.0000 (  6559 PWs)   bands (ev):

   -19.1935 -15.1697 -11.5049  -7.3654  -2.3434   2.0734   3.8071   4.5057

          k = 0.1483 0.5995 0.0000 (  6560 PWs)   bands (ev):

   -18.2771 -16.3254 -11.6985  -6.5972  -3.2962   1.9516   5.3210   5.8704

          k = 0.2225 0.3854 0.0000 (  6568 PWs)   bands (ev):

   -20.1930 -13.4005 -11.4697  -8.3676  -0.8955   2.3636   3.0876   3.9737

          k = 0.2225 0.4711 0.0000 (  6563 PWs)   bands (ev):

   -19.3488 -14.5171 -12.1647  -7.4839  -2.0602   3.5454   3.7057   4.2331

          k = 0.2225 0.5567 0.0000 (  6555 PWs)   bands (ev):

   -18.4078 -15.6814 -12.5586  -6.5774  -3.1488   3.5025   4.9667   5.4002

          k = 0.2225 0.6424 0.0000 (  6554 PWs)   bands (ev):

   -17.7529 -16.4219 -12.6845  -6.0715  -3.7181   3.4405   5.9248   6.2477

          k = 0.2967 0.5139 0.0000 (  6544 PWs)   bands (ev):

   -18.4645 -15.2979 -13.0171  -6.5803  -3.0700   4.8184   4.9062   5.6678

          k = 0.2967 0.5995 0.0000 (  6525 PWs)   bands (ev):

   -17.5574 -16.1594 -13.4590  -5.7196  -3.9783   4.9947   5.5750   6.0514

          k = 0.3709 0.6424 0.0000 (  6486 PWs)   bands (ev):

   -16.7628 -16.7628 -13.8345  -4.8396  -4.8396   5.4636   5.9753   5.9753

     the Fermi energy is    -4.8396 ev

!    total energy              =     -22.74755014 Ry
     estimated scf accuracy    <          6.1E-12 Ry
     smearing contrib. (-TS)   =      -0.00005015 Ry
     internal energy E=F+TS    =     -22.74749999 Ry

     The total energy is F=E-TS. E is the sum of the following terms:
     one-electron contribution =    -331.04809686 Ry
     hartree contribution      =     166.01347124 Ry
     xc contribution           =      -6.69829385 Ry
     ewald contribution        =     148.98541948 Ry

     convergence has been achieved in  11 iterations

     Forces acting on atoms (cartesian axes, Ry/au):

     atom    1 type  1   force =     0.00000000    0.00000000    0.00000000
     atom    2 type  1   force =    -0.00000000   -0.00000000    0.00000000

     Total force =     0.000000     Total SCF correction =     0.000000


     Computing stress (Cartesian axis) and pressure

          total   stress  (Ry/bohr**3)                   (kbar)     P=      -76.74
  -0.00075220  -0.00000000   0.00000000         -110.65       -0.00        0.00
  -0.00000000  -0.00075220   0.00000000           -0.00     -110.65        0.00
   0.00000000   0.00000000  -0.00006050            0.00        0.00       -8.90

     Energy error            =      7.9E-02
     Gradient error          =      9.6E-27
     Cell gradient error     =      7.5E-04


     number of scf cycles    =   4
     number of bfgs steps    =   3

     enthalpy old            =     -22.6683506708 Ry
     enthalpy new            =     -22.7475501430 Ry

     CASE: enthalpy_new < enthalpy_old

     new trust radius        =       0.4430541125 bohr
     new conv_thr            =            1.0E-10 Ry

     new unit-cell volume =    761.39153 a.u.^3 (   112.82658 Ang^3 )
     density =      0.35354 g/cm^3

CELL_PARAMETERS (alat=  5.60000000)
   0.831999691  -0.000000000   0.000000000
  -0.415999846   0.720532869   0.000000000
   0.000000000   0.000000000   7.232142857

ATOMIC_POSITIONS (crystal)
C             0.3333333333        0.6666666667        0.5000000000
C             0.6666666667        0.3333333333        0.5000000000



     Writing output data file ./work/LiC560.save/
     NEW-OLD atomic charge density approx. for the potential

     negative rho (up, down):  5.450E-05 0.000E+00
     extrapolated charge    6.66624, renormalised to    8.00000

     total cpu time spent up to now is        9.8 secs

     Self-consistent Calculation

     iteration #  1     ecut=    50.00 Ry     beta= 0.70
     Davidson diagonalization with overlap
     c_bands:  2 eigenvalues not converged
     c_bands:  5 eigenvalues not converged
     c_bands:  4 eigenvalues not converged
     c_bands:  3 eigenvalues not converged
     c_bands:  3 eigenvalues not converged
     c_bands:  2 eigenvalues not converged
     c_bands:  2 eigenvalues not converged
     c_bands:  2 eigenvalues not converged
     c_bands:  4 eigenvalues not converged
     c_bands:  4 eigenvalues not converged
     c_bands:  4 eigenvalues not converged
     c_bands:  3 eigenvalues not converged
     c_bands:  2 eigenvalues not converged
     c_bands:  2 eigenvalues not converged
     c_bands:  2 eigenvalues not converged
     c_bands:  3 eigenvalues not converged
     c_bands:  3 eigenvalues not converged
     c_bands:  3 eigenvalues not converged
     c_bands:  2 eigenvalues not converged
     c_bands:  2 eigenvalues not converged
     c_bands:  3 eigenvalues not converged
     c_bands:  3 eigenvalues not converged
     c_bands:  2 eigenvalues not converged
     c_bands:  1 eigenvalues not converged
     c_bands:  1 eigenvalues not converged
     c_bands:  2 eigenvalues not converged
     ethr =  1.00E-06,  avg # of iterations = 19.8

     negative rho (up, down):  1.774E-05 0.000E+00

     total cpu time spent up to now is       10.7 secs

     total energy              =     -22.42548681 Ry
     estimated scf accuracy    <       0.21218688 Ry

     iteration #  2     ecut=    50.00 Ry     beta= 0.70
     Davidson diagonalization with overlap
     ethr =  2.65E-03,  avg # of iterations =  9.4

     negative rho (up, down):  1.066E-05 0.000E+00

     total cpu time spent up to now is       11.0 secs

     total energy              =     -22.80755522 Ry
     estimated scf accuracy    <       0.17530039 Ry

     iteration #  3     ecut=    50.00 Ry     beta= 0.70
     Davidson diagonalization with overlap
     ethr =  2.19E-03,  avg # of iterations =  1.2

     negative rho (up, down):  3.380E-06 0.000E+00

     total cpu time spent up to now is       11.1 secs

     total energy              =     -22.80369909 Ry
     estimated scf accuracy    <       0.03273406 Ry

     iteration #  4     ecut=    50.00 Ry     beta= 0.70
     Davidson diagonalization with overlap
     ethr =  4.09E-04,  avg # of iterations =  2.8

     negative rho (up, down):  3.267E-06 0.000E+00

     total cpu time spent up to now is       11.3 secs

     total energy              =     -22.80253416 Ry
     estimated scf accuracy    <       0.00540569 Ry

     iteration #  5     ecut=    50.00 Ry     beta= 0.70
     Davidson diagonalization with overlap
     ethr =  6.76E-05,  avg # of iterations =  5.3

     total cpu time spent up to now is       11.5 secs

     total energy              =     -22.80377802 Ry
     estimated scf accuracy    <       0.00022235 Ry

     iteration #  6     ecut=    50.00 Ry     beta= 0.70
     Davidson diagonalization with overlap
     ethr =  2.78E-06,  avg # of iterations =  7.3

     total cpu time spent up to now is       11.8 secs

     total energy              =     -22.80381046 Ry
     estimated scf accuracy    <       0.00000301 Ry

     iteration #  7     ecut=    50.00 Ry     beta= 0.70
     Davidson diagonalization with overlap
     ethr =  3.77E-08,  avg # of iterations =  3.0

     total cpu time spent up to now is       12.0 secs

     total energy              =     -22.80381223 Ry
     estimated scf accuracy    <       0.00000064 Ry

     iteration #  8     ecut=    50.00 Ry     beta= 0.70
     Davidson diagonalization with overlap
     ethr =  7.99E-09,  avg # of iterations =  2.0

     total cpu time spent up to now is       12.1 secs

     total energy              =     -22.80381232 Ry
     estimated scf accuracy    <          3.3E-09 Ry

     iteration #  9     ecut=    50.00 Ry     beta= 0.70
     Davidson diagonalization with overlap
     ethr =  4.09E-11,  avg # of iterations =  3.7

     total cpu time spent up to now is       12.3 secs

     total energy              =     -22.80381231 Ry
     estimated scf accuracy    <       0.00000003 Ry

     iteration # 10     ecut=    50.00 Ry     beta= 0.70
     Davidson diagonalization with overlap
     ethr =  4.09E-11,  avg # of iterations =  2.0

     total cpu time spent up to now is       12.5 secs

     End of self-consistent calculation

          k = 0.0000 0.0000 0.0000 (  6607 PWs)   bands (ev):

   -23.7677 -11.8682  -7.3408  -7.3408  -0.9735  -0.1895   0.6174   0.9674

          k = 0.0000 0.0925 0.0000 (  6585 PWs)   bands (ev):

   -23.6629 -11.7425  -7.7627  -7.5623  -0.8310  -0.0450   0.7629   1.1124

          k = 0.0000 0.1850 0.0000 (  6583 PWs)   bands (ev):

   -23.3493 -11.3675  -8.8848  -8.1240  -0.4035   0.3882   1.1996   1.5469

          k = 0.0000 0.2776 0.0000 (  6587 PWs)   bands (ev):

   -22.8292 -10.7512 -10.4249  -8.8274   0.3085   1.1075   1.9271   2.2686

          k = 0.0000 0.3701 0.0000 (  6555 PWs)   bands (ev):

   -22.1067 -12.1495  -9.9079  -9.5118   1.3028   2.0681   2.5806   2.9427

          k = 0.0000 0.4626 0.0000 (  6567 PWs)   bands (ev):

   -21.1894 -13.9077 -10.0816  -8.8714   0.6684   2.5690   3.4281   3.4769

          k = 0.0000 0.5551 0.0000 (  6581 PWs)   bands (ev):

   -20.0934 -15.6004 -10.4837  -7.7287  -1.0778   3.2491   4.1550   4.9928

          k = 0.0000 0.6477 0.0000 (  6588 PWs)   bands (ev):

   -18.8956 -17.1061 -10.6907  -6.7724  -2.3551   3.1542   5.9554   6.8190

          k = 0.0801 0.1388 0.0000 (  6583 PWs)   bands (ev):

   -23.4538 -11.4923  -8.4836  -8.0057  -0.5459   0.2439   1.0541   1.4021

          k = 0.0801 0.2313 0.0000 (  6572 PWs)   bands (ev):

   -23.0369 -10.9962  -9.7260  -8.7288   0.0242   0.8205   1.6364   1.9808

          k = 0.0801 0.3238 0.0000 (  6574 PWs)   bands (ev):

   -22.4155 -11.2999 -10.2653  -9.4826   0.8781   1.6790   2.5092   2.8370

          k = 0.0801 0.4164 0.0000 (  6577 PWs)   bands (ev):

   -21.5955 -13.0108 -10.1408  -9.3209   1.5057   2.0121   2.8538   3.6654

          k = 0.0801 0.5089 0.0000 (  6586 PWs)   bands (ev):

   -20.5876 -14.7222 -10.6417  -8.2148  -0.2791   3.4002   3.8508   4.2725

          k = 0.0801 0.6014 0.0000 (  6574 PWs)   bands (ev):

   -19.4217 -16.3332 -10.9527  -7.0989  -1.8422   3.6555   5.1250   5.9623

          k = 0.0801 0.6939 0.0000 (  6556 PWs)   bands (ev):

   -18.4664 -17.4405 -11.0579  -6.5108  -2.5856   3.6056   6.9688   7.1262

          k = 0.1603 0.2776 0.0000 (  6581 PWs)   bands (ev):

   -22.5189 -10.8209 -10.3852  -9.6856   0.7366   1.5392   2.3645   2.7027

          k = 0.1603 0.3701 0.0000 (  6570 PWs)   bands (ev):

   -21.7999 -12.2088 -10.5873  -9.5492   1.7315   2.0498   2.5486   3.3830

          k = 0.1603 0.4626 0.0000 (  6567 PWs)   bands (ev):

   -20.8885 -13.7922 -11.2587  -8.5198   0.3838   3.0038   3.8232   4.6863

          k = 0.1603 0.5551 0.0000 (  6559 PWs)   bands (ev):

   -19.8019 -15.3972 -11.7017  -7.3759  -1.2419   4.5297   5.0029   5.3566

          k = 0.1603 0.6477 0.0000 (  6560 PWs)   bands (ev):

   -18.6195 -16.8566 -11.9230  -6.3980  -2.4788   4.8653   6.3540   7.0368

          k = 0.2404 0.4164 0.0000 (  6568 PWs)   bands (ev):

   -20.9894 -13.2184 -11.7538  -8.6234   0.6555   2.8644   3.6668   4.5471

          k = 0.2404 0.5089 0.0000 (  6563 PWs)   bands (ev):

   -19.9969 -14.4960 -12.5702  -7.5305  -0.8193   4.2681   5.0319   6.2342

          k = 0.2404 0.6014 0.0000 (  6555 PWs)   bands (ev):

   -18.8562 -15.9156 -12.9954  -6.3950  -2.2060   5.9152   6.4560   6.6416

          k = 0.2404 0.6939 0.0000 (  6554 PWs)   bands (ev):

   -17.9292 -16.9515 -13.1278  -5.7469  -2.9423   6.5580   7.0979   7.6636

          k = 0.3205 0.5551 0.0000 (  6544 PWs)   bands (ev):

   -18.9439 -15.2745 -13.6891  -6.4077  -2.0643   5.7836   6.2240   7.5838

          k = 0.3205 0.6477 0.0000 (  6525 PWs)   bands (ev):

   -17.8104 -16.3166 -14.2281  -5.3284  -3.1980   6.5813   7.4662   8.2936

          k = 0.4006 0.6939 0.0000 (  6486 PWs)   bands (ev):

   -16.8598 -16.8598 -14.8414  -4.2437  -4.2437   6.3892   8.6211   8.6211

     the Fermi energy is    -4.2437 ev

!    total energy              =     -22.80381232 Ry
     estimated scf accuracy    <          4.5E-11 Ry
     smearing contrib. (-TS)   =      -0.00005015 Ry
     internal energy E=F+TS    =     -22.80376217 Ry

     The total energy is F=E-TS. E is the sum of the following terms:
     one-electron contribution =    -386.90960584 Ry
     hartree contribution      =     194.07564939 Ry
     xc contribution           =      -7.01105635 Ry
     ewald contribution        =     177.04125063 Ry

     convergence has been achieved in  10 iterations

     Forces acting on atoms (cartesian axes, Ry/au):

     atom    1 type  1   force =     0.00000000    0.00000000    0.00000000
     atom    2 type  1   force =    -0.00000000   -0.00000000    0.00000000

     Total force =     0.000000     Total SCF correction =     0.000000


     Computing stress (Cartesian axis) and pressure

          total   stress  (Ry/bohr**3)                   (kbar)     P=       -5.27
  -0.00002498   0.00000000   0.00000000           -3.67        0.00        0.00
   0.00000000  -0.00002498   0.00000000            0.00       -3.67        0.00
   0.00000000   0.00000000  -0.00005761            0.00        0.00       -8.47

     Energy error            =      5.6E-02
     Gradient error          =      1.0E-26
     Cell gradient error     =      2.5E-05


     number of scf cycles    =   5
     number of bfgs steps    =   4

     enthalpy old            =     -22.7475501430 Ry
     enthalpy new            =     -22.8038123159 Ry

     CASE: enthalpy_new < enthalpy_old

     new trust radius        =       0.0140497202 bohr
     new conv_thr            =            1.0E-10 Ry

     new unit-cell volume =    757.51968 a.u.^3 (   112.25283 Ang^3 )
     density =      0.35534 g/cm^3

CELL_PARAMETERS (alat=  5.60000000)
   0.829881541  -0.000000000   0.000000000
  -0.414940770   0.718698497   0.000000000
   0.000000000   0.000000000   7.232142857

ATOMIC_POSITIONS (crystal)
C             0.3333333333        0.6666666667        0.5000000000
C             0.6666666667        0.3333333333        0.5000000000



     Writing output data file ./work/LiC560.save/
     NEW-OLD atomic charge density approx. for the potential

     negative rho (up, down):  1.877E-06 0.000E+00
     extrapolated charge    7.95918, renormalised to    8.00000

     total cpu time spent up to now is       12.6 secs

     Self-consistent Calculation

     iteration #  1     ecut=    50.00 Ry     beta= 0.70
     Davidson diagonalization with overlap
     c_bands:  1 eigenvalues not converged
     c_bands:  2 eigenvalues not converged
     c_bands:  1 eigenvalues not converged
     c_bands:  2 eigenvalues not converged
     c_bands:  1 eigenvalues not converged
     c_bands:  1 eigenvalues not converged
     ethr =  1.00E-06,  avg # of iterations = 13.4

     negative rho (up, down):  1.254E-07 0.000E+00

     total cpu time spent up to now is       13.0 secs

     total energy              =     -22.80291193 Ry
     estimated scf accuracy    <       0.00048031 Ry

     iteration #  2     ecut=    50.00 Ry     beta= 0.70
     Davidson diagonalization with overlap
     ethr =  6.00E-06,  avg # of iterations = 11.2

     negative rho (up, down):  2.391E-08 0.000E+00

     total cpu time spent up to now is       13.3 secs

     total energy              =     -22.80387189 Ry
     estimated scf accuracy    <       0.00045122 Ry

     iteration #  3     ecut=    50.00 Ry     beta= 0.70
     Davidson diagonalization with overlap
     ethr =  5.64E-06,  avg # of iterations =  1.0

     total cpu time spent up to now is       13.5 secs

     total energy              =     -22.80384599 Ry
     estimated scf accuracy    <       0.00010357 Ry

     iteration #  4     ecut=    50.00 Ry     beta= 0.70
     Davidson diagonalization with overlap
     ethr =  1.29E-06,  avg # of iterations =  1.9

     total cpu time spent up to now is       13.6 secs

     total energy              =     -22.80385229 Ry
     estimated scf accuracy    <       0.00001903 Ry

     iteration #  5     ecut=    50.00 Ry     beta= 0.70
     Davidson diagonalization with overlap
     ethr =  2.38E-07,  avg # of iterations =  1.0

     total cpu time spent up to now is       13.7 secs

     total energy              =     -22.80384093 Ry
     estimated scf accuracy    <       0.00001927 Ry

     iteration #  6     ecut=    50.00 Ry     beta= 0.70
     Davidson diagonalization with overlap
     ethr =  2.38E-07,  avg # of iterations =  2.0

     total cpu time spent up to now is       13.9 secs

     total energy              =     -22.80384362 Ry
     estimated scf accuracy    <       0.00000017 Ry

     iteration #  7     ecut=    50.00 Ry     beta= 0.70
     Davidson diagonalization with overlap
     ethr =  2.08E-09,  avg # of iterations =  3.0

     total cpu time spent up to now is       14.1 secs

     total energy              =     -22.80384373 Ry
     estimated scf accuracy    <       0.00000002 Ry

     iteration #  8     ecut=    50.00 Ry     beta= 0.70
     Davidson diagonalization with overlap
     ethr =  3.00E-10,  avg # of iterations =  2.0

     total cpu time spent up to now is       14.2 secs

     total energy              =     -22.80384373 Ry
     estimated scf accuracy    <       0.00000001 Ry

     iteration #  9     ecut=    50.00 Ry     beta= 0.70
     Davidson diagonalization with overlap
     ethr =  1.55E-10,  avg # of iterations =  2.0

     total cpu time spent up to now is       14.4 secs

     total energy              =     -22.80384374 Ry
     estimated scf accuracy    <          1.4E-10 Ry

     iteration # 10     ecut=    50.00 Ry     beta= 0.70
     Davidson diagonalization with overlap
     ethr =  1.75E-12,  avg # of iterations =  2.4

     total cpu time spent up to now is       14.6 secs

     End of self-consistent calculation

          k = 0.0000 0.0000 0.0000 (  6607 PWs)   bands (ev):

   -23.8068 -11.8977  -7.3165  -7.3165  -0.9750  -0.1895   0.6172   0.9672

          k = 0.0000 0.0928 0.0000 (  6585 PWs)   bands (ev):

   -23.7015 -11.7712  -7.7395  -7.5397  -0.8318  -0.0442   0.7635   1.1129

          k = 0.0000 0.1855 0.0000 (  6583 PWs)   bands (ev):

   -23.3865 -11.3939  -8.8651  -8.1058  -0.4021   0.3912   1.2023   1.5497

          k = 0.0000 0.2783 0.0000 (  6587 PWs)   bands (ev):

   -22.8640 -10.7737 -10.4108  -8.8144   0.3136   1.1143   1.9336   2.2752

          k = 0.0000 0.3710 0.0000 (  6555 PWs)   bands (ev):

   -22.1382 -12.1423  -9.9249  -9.5035   1.3129   2.0846   2.6434   2.9547

          k = 0.0000 0.4638 0.0000 (  6567 PWs)   bands (ev):

   -21.2165 -13.9080 -10.0772  -8.8815   0.7208   2.5863   3.4478   3.5699

          k = 0.0000 0.5566 0.0000 (  6581 PWs)   bands (ev):

   -20.1147 -15.6088 -10.4819  -7.7307  -1.0395   3.3438   4.1820   5.0209

          k = 0.0000 0.6493 0.0000 (  6588 PWs)   bands (ev):

   -18.9072 -17.1255 -10.6903  -6.7669  -2.3276   3.2520   5.9900   6.8574

          k = 0.0803 0.1391 0.0000 (  6583 PWs)   bands (ev):

   -23.4914 -11.5195  -8.4623  -7.9866  -0.5452   0.2462   1.0561   1.4042

          k = 0.0803 0.2319 0.0000 (  6572 PWs)   bands (ev):

   -23.0727 -11.0203  -9.7086  -8.7150   0.0278   0.8258   1.6414   1.9859

          k = 0.0803 0.3247 0.0000 (  6574 PWs)   bands (ev):

   -22.4485 -11.2886 -10.2847  -9.4738   0.8860   1.6890   2.5188   2.8472

          k = 0.0803 0.4174 0.0000 (  6577 PWs)   bands (ev):

   -21.6246 -13.0067 -10.1361  -9.3341   1.5653   2.0259   2.8708   3.6821

          k = 0.0803 0.5102 0.0000 (  6586 PWs)   bands (ev):

   -20.6116 -14.7260 -10.6401  -8.2204  -0.2335   3.4250   3.9442   4.2966

          k = 0.0803 0.6029 0.0000 (  6574 PWs)   bands (ev):

   -19.4388 -16.3458 -10.9530  -7.0962  -1.8096   3.7539   5.1557   5.9959

          k = 0.0803 0.6957 0.0000 (  6556 PWs)   bands (ev):

   -18.4705 -17.4668 -11.0588  -6.5032  -2.5595   3.7051   7.0097   7.1663

          k = 0.1607 0.2783 0.0000 (  6581 PWs)   bands (ev):

   -22.5523 -10.8059 -10.4053  -9.6789   0.7438   1.5483   2.3732   2.7116

          k = 0.1607 0.3710 0.0000 (  6570 PWs)   bands (ev):

   -21.8300 -12.1991 -10.5859  -9.5639   1.7438   2.1153   2.5643   3.3970

          k = 0.1607 0.4638 0.0000 (  6567 PWs)   bands (ev):

   -20.9141 -13.7901 -11.2602  -8.5276   0.4365   3.0228   3.8448   4.7079

          k = 0.1607 0.5566 0.0000 (  6559 PWs)   bands (ev):

   -19.8218 -15.4034 -11.7052  -7.3756  -1.2024   4.5594   5.1024   5.3869

          k = 0.1607 0.6493 0.0000 (  6560 PWs)   bands (ev):

   -18.6300 -16.8735 -11.9275  -6.3901  -2.4497   4.9686   6.3912   7.0786

          k = 0.2410 0.4174 0.0000 (  6568 PWs)   bands (ev):

   -21.0156 -13.2098 -11.7609  -8.6319   0.7116   2.8825   3.6875   4.5667

          k = 0.2410 0.5102 0.0000 (  6563 PWs)   bands (ev):

   -20.0181 -14.4935 -12.5809  -7.5316  -0.7744   4.2937   5.0605   6.0241

          k = 0.2410 0.6029 0.0000 (  6555 PWs)   bands (ev):

   -18.8705 -15.9225 -13.0066  -6.3878  -2.1719   5.9509   6.4942   6.7487

          k = 0.2410 0.6957 0.0000 (  6554 PWs)   bands (ev):

   -17.9321 -16.9708 -13.1391  -5.7345  -2.9144   6.6668   7.1408   7.7109

          k = 0.3213 0.5566 0.0000 (  6544 PWs)   bands (ev):

   -18.9593 -15.2712 -13.7098  -6.4009  -2.0276   5.8175   6.2602   7.5726

          k = 0.3213 0.6493 0.0000 (  6525 PWs)   bands (ev):

   -17.8174 -16.3209 -14.2513  -5.3137  -3.1694   6.6178   7.5129   8.4008

          k = 0.4017 0.6957 0.0000 (  6486 PWs)   bands (ev):

   -16.8603 -16.8603 -14.8757  -4.2216  -4.2216   6.4229   8.6961   8.6961

     the Fermi energy is    -4.2216 ev

!    total energy              =     -22.80384374 Ry
     estimated scf accuracy    <          4.2E-11 Ry
     smearing contrib. (-TS)   =      -0.00005015 Ry
     internal energy E=F+TS    =     -22.80379359 Ry

     The total energy is F=E-TS. E is the sum of the following terms:
     one-electron contribution =    -388.91009988 Ry
     hartree contribution      =     195.08101148 Ry
     xc contribution           =      -7.02200603 Ry
     ewald contribution        =     178.04730084 Ry

     convergence has been achieved in  10 iterations

     Forces acting on atoms (cartesian axes, Ry/au):

     atom    1 type  1   force =     0.00000000    0.00000000    0.00000000
     atom    2 type  1   force =     0.00000000    0.00000000    0.00000000

     Total force =     0.000000     Total SCF correction =     0.000000


     Computing stress (Cartesian axis) and pressure

          total   stress  (Ry/bohr**3)                   (kbar)     P=       -1.95
   0.00000889  -0.00000000  -0.00000000            1.31       -0.00       -0.00
  -0.00000000   0.00000889  -0.00000000           -0.00        1.31       -0.00
  -0.00000000  -0.00000000  -0.00005755           -0.00       -0.00       -8.47

     Energy error            =      3.1E-05
     Gradient error          =      0.0E+00
     Cell gradient error     =      8.9E-06


     number of scf cycles    =   6
     number of bfgs steps    =   5

     enthalpy old            =     -22.8038123159 Ry
     enthalpy new            =     -22.8038437365 Ry

     CASE: enthalpy_new < enthalpy_old

     new trust radius        =       0.0036825774 bohr
     new conv_thr            =            1.0E-10 Ry

     new unit-cell volume =    758.53357 a.u.^3 (   112.40308 Ang^3 )
     density =      0.35487 g/cm^3

CELL_PARAMETERS (alat=  5.60000000)
   0.830436730  -0.000000000   0.000000000
  -0.415218365   0.719179305   0.000000000
   0.000000000   0.000000000   7.232142857

ATOMIC_POSITIONS (crystal)
C             0.3333333333        0.6666666667        0.5000000000
C             0.6666666667        0.3333333333        0.5000000000



     Writing output data file ./work/LiC560.save/
     NEW-OLD atomic charge density approx. for the potential

     negative rho (up, down):  7.687E-08 0.000E+00
     extrapolated charge    8.01067, renormalised to    8.00000

     total cpu time spent up to now is       14.7 secs

     Self-consistent Calculation

     iteration #  1     ecut=    50.00 Ry     beta= 0.70
     Davidson diagonalization with overlap
     c_bands:  1 eigenvalues not converged
     c_bands:  1 eigenvalues not converged
     c_bands:  1 eigenvalues not converged
     ethr =  1.00E-06,  avg # of iterations = 10.9

     total cpu time spent up to now is       15.0 secs

     total energy              =     -22.80378023 Ry
     estimated scf accuracy    <       0.00003481 Ry

     iteration #  2     ecut=    50.00 Ry     beta= 0.70
     Davidson diagonalization with overlap
     c_bands:  1 eigenvalues not converged
     ethr =  4.35E-07,  avg # of iterations =  9.0

     total cpu time spent up to now is       15.3 secs

     total energy              =     -22.80385030 Ry
     estimated scf accuracy    <       0.00003281 Ry

     iteration #  3     ecut=    50.00 Ry     beta= 0.70
     Davidson diagonalization with overlap
     c_bands:  1 eigenvalues not converged
     ethr =  4.10E-07,  avg # of iterations =  1.7

     total cpu time spent up to now is       15.4 secs

     total energy              =     -22.80384834 Ry
     estimated scf accuracy    <       0.00000757 Ry

     iteration #  4     ecut=    50.00 Ry     beta= 0.70
     Davidson diagonalization with overlap
     ethr =  9.46E-08,  avg # of iterations =  2.0

     total cpu time spent up to now is       15.6 secs

     total energy              =     -22.80384887 Ry
     estimated scf accuracy    <       0.00000133 Ry

     iteration #  5     ecut=    50.00 Ry     beta= 0.70
     Davidson diagonalization with overlap
     ethr =  1.67E-08,  avg # of iterations =  1.0

     total cpu time spent up to now is       15.7 secs

     total energy              =     -22.80384813 Ry
     estimated scf accuracy    <       0.00000146 Ry

     iteration #  6     ecut=    50.00 Ry     beta= 0.70
     Davidson diagonalization with overlap
     ethr =  1.67E-08,  avg # of iterations =  2.0

     total cpu time spent up to now is       15.9 secs

     total energy              =     -22.80384819 Ry
     estimated scf accuracy    <       0.00000011 Ry

     iteration #  7     ecut=    50.00 Ry     beta= 0.70
     Davidson diagonalization with overlap
     ethr =  1.43E-09,  avg # of iterations =  2.0

     total cpu time spent up to now is       16.0 secs

     total energy              =     -22.80384821 Ry
     estimated scf accuracy    <          2.0E-09 Ry

     iteration #  8     ecut=    50.00 Ry     beta= 0.70
     Davidson diagonalization with overlap
     ethr =  2.49E-11,  avg # of iterations =  2.6

     total cpu time spent up to now is       16.2 secs

     total energy              =     -22.80384821 Ry
     estimated scf accuracy    <          2.9E-09 Ry

     iteration #  9     ecut=    50.00 Ry     beta= 0.70
     Davidson diagonalization with overlap
     ethr =  2.49E-11,  avg # of iterations =  2.0

     total cpu time spent up to now is       16.4 secs

     total energy              =     -22.80384821 Ry
     estimated scf accuracy    <          1.8E-10 Ry

     iteration # 10     ecut=    50.00 Ry     beta= 0.70
     Davidson diagonalization with overlap
     ethr =  2.23E-12,  avg # of iterations =  2.0

     total cpu time spent up to now is       16.5 secs

     End of self-consistent calculation

          k = 0.0000 0.0000 0.0000 (  6607 PWs)   bands (ev):

   -23.7966 -11.8900  -7.3229  -7.3229  -0.9746  -0.1895   0.6172   0.9672

          k = 0.0000 0.0927 0.0000 (  6585 PWs)   bands (ev):

   -23.6915 -11.7637  -7.7457  -7.5457  -0.8316  -0.0444   0.7633   1.1127

          k = 0.0000 0.1854 0.0000 (  6583 PWs)   bands (ev):

   -23.3768 -11.3870  -8.8703  -8.1107  -0.4025   0.3904   1.2016   1.5489

          k = 0.0000 0.2781 0.0000 (  6587 PWs)   bands (ev):

   -22.8549 -10.7678 -10.4146  -8.8179   0.3122   1.1124   1.9319   2.2734

          k = 0.0000 0.3708 0.0000 (  6555 PWs)   bands (ev):

   -22.1299 -12.1442  -9.9205  -9.5057   1.3102   2.0803   2.6267   2.9515

          k = 0.0000 0.4635 0.0000 (  6567 PWs)   bands (ev):

   -21.2094 -13.9080 -10.0784  -8.8789   0.7070   2.5817   3.4425   3.5454

          k = 0.0000 0.5562 0.0000 (  6581 PWs)   bands (ev):

   -20.1091 -15.6067 -10.4824  -7.7302  -1.0496   3.3189   4.1749   5.0134

          k = 0.0000 0.6489 0.0000 (  6588 PWs)   bands (ev):

   -18.9042 -17.1205 -10.6904  -6.7684  -2.3349   3.2263   5.9809   6.8472

          k = 0.0803 0.1390 0.0000 (  6583 PWs)   bands (ev):

   -23.4816 -11.5124  -8.4680  -7.9917  -0.5455   0.2455   1.0555   1.4036

          k = 0.0803 0.2317 0.0000 (  6572 PWs)   bands (ev):

   -23.0633 -11.0140  -9.7132  -8.7187   0.0268   0.8244   1.6400   1.9845

          k = 0.0803 0.3244 0.0000 (  6574 PWs)   bands (ev):

   -22.4399 -11.2916 -10.2796  -9.4762   0.8839   1.6864   2.5163   2.8444

          k = 0.0803 0.4171 0.0000 (  6577 PWs)   bands (ev):

   -21.6170 -13.0078 -10.1374  -9.3306   1.5496   2.0222   2.8662   3.6773

          k = 0.0803 0.5098 0.0000 (  6586 PWs)   bands (ev):

   -20.6054 -14.7250 -10.6405  -8.2190  -0.2455   3.4185   3.9195   4.2902

          k = 0.0803 0.6025 0.0000 (  6574 PWs)   bands (ev):

   -19.4343 -16.3426 -10.9530  -7.0970  -1.8182   3.7280   5.1476   5.9870

          k = 0.0803 0.6952 0.0000 (  6556 PWs)   bands (ev):

   -18.4695 -17.4599 -11.0586  -6.5052  -2.5664   3.6789   6.9989   7.1557

          k = 0.1606 0.2781 0.0000 (  6581 PWs)   bands (ev):

   -22.5435 -10.8099 -10.4001  -9.6807   0.7419   1.5458   2.3709   2.7092

          k = 0.1606 0.3708 0.0000 (  6570 PWs)   bands (ev):

   -21.8222 -12.2017 -10.5863  -9.5601   1.7405   2.0981   2.5600   3.3933

          k = 0.1606 0.4635 0.0000 (  6567 PWs)   bands (ev):

   -20.9074 -13.7907 -11.2599  -8.5256   0.4226   3.0177   3.8391   4.7022

          k = 0.1606 0.5562 0.0000 (  6559 PWs)   bands (ev):

   -19.8166 -15.4018 -11.7043  -7.3757  -1.2128   4.5516   5.0761   5.3789

          k = 0.1606 0.6489 0.0000 (  6560 PWs)   bands (ev):

   -18.6273 -16.8691 -11.9263  -6.3922  -2.4574   4.9414   6.3814   7.0675

          k = 0.2408 0.4171 0.0000 (  6568 PWs)   bands (ev):

   -21.0088 -13.2121 -11.7591  -8.6297   0.6968   2.8777   3.6820   4.5614

          k = 0.2408 0.5098 0.0000 (  6563 PWs)   bands (ev):

   -20.0126 -14.4942 -12.5781  -7.5313  -0.7862   4.2869   5.0529   6.0167

          k = 0.2408 0.6025 0.0000 (  6555 PWs)   bands (ev):

   -18.8668 -15.9207 -13.0037  -6.3898  -2.1809   5.9415   6.4841   6.7205

          k = 0.2408 0.6952 0.0000 (  6554 PWs)   bands (ev):

   -17.9314 -16.9658 -13.1362  -5.7378  -2.9218   6.6382   7.1295   7.6984

          k = 0.3211 0.5562 0.0000 (  6544 PWs)   bands (ev):

   -18.9553 -15.2721 -13.7044  -6.4027  -2.0373   5.8086   6.2506   7.5636

          k = 0.3211 0.6489 0.0000 (  6525 PWs)   bands (ev):

   -17.8156 -16.3198 -14.2452  -5.3176  -3.1770   6.6082   7.5005   8.3727

          k = 0.4014 0.6952 0.0000 (  6486 PWs)   bands (ev):

   -16.8602 -16.8602 -14.8667  -4.2274  -4.2274   6.4140   8.6764   8.6764

     the Fermi energy is    -4.2274 ev

!    total energy              =     -22.80384821 Ry
     estimated scf accuracy    <          1.1E-11 Ry
     smearing contrib. (-TS)   =      -0.00005015 Ry
     internal energy E=F+TS    =     -22.80379806 Ry

     The total energy is F=E-TS. E is the sum of the following terms:
     one-electron contribution =    -388.38423227 Ry
     hartree contribution      =     194.81672759 Ry
     xc contribution           =      -7.01912853 Ry
     ewald contribution        =     177.78283514 Ry

     convergence has been achieved in  10 iterations

     Forces acting on atoms (cartesian axes, Ry/au):

     atom    1 type  1   force =     0.00000000    0.00000000    0.00000000
     atom    2 type  1   force =     0.00000000    0.00000000    0.00000000

     Total force =     0.000000     Total SCF correction =     0.000000


     Computing stress (Cartesian axis) and pressure

          total   stress  (Ry/bohr**3)                   (kbar)     P=       -2.83
  -0.00000007  -0.00000000   0.00000000           -0.01       -0.00        0.00
   0.00000000  -0.00000007   0.00000000            0.00       -0.01        0.00
   0.00000000   0.00000000  -0.00005757            0.00        0.00       -8.47

     Energy error            =      4.5E-06
     Gradient error          =      0.0E+00
     Cell gradient error     =      6.7E-08


     number of scf cycles    =   7
     number of bfgs steps    =   6

     enthalpy old            =     -22.8038437365 Ry
     enthalpy new            =     -22.8038482113 Ry

     CASE: enthalpy_new < enthalpy_old

     small trust_radius: resetting bfgs history

     new trust radius        =       0.0000091971 bohr
     new conv_thr            =            1.0E-10 Ry

     new unit-cell volume =    758.53104 a.u.^3 (   112.40270 Ang^3 )
     density =      0.35487 g/cm^3

CELL_PARAMETERS (alat=  5.60000000)
   0.830435344  -0.000000000   0.000000000
  -0.415217672   0.719178104   0.000000000
   0.000000000   0.000000000   7.232142857

ATOMIC_POSITIONS (crystal)
C             0.3333333333        0.6666666667        0.5000000000
C             0.6666666667        0.3333333333        0.5000000000



     Writing output data file ./work/LiC560.save/
     NEW-OLD atomic charge density approx. for the potential
     extrapolated charge    7.99997, renormalised to    8.00000

     total cpu time spent up to now is       16.6 secs

     Self-consistent Calculation

     iteration #  1     ecut=    50.00 Ry     beta= 0.70
     Davidson diagonalization with overlap
     ethr =  1.00E-06,  avg # of iterations =  1.0

     Threshold (ethr) on eigenvalues was too large:
     Diagonalizing with lowered threshold

     Davidson diagonalization with overlap
     ethr =  2.45E-12,  avg # of iterations =  1.9

     total cpu time spent up to now is       16.9 secs

     total energy              =     -22.80384821 Ry
     estimated scf accuracy    <          2.2E-10 Ry

     iteration #  2     ecut=    50.00 Ry     beta= 0.70
     Davidson diagonalization with overlap
     ethr =  2.76E-12,  avg # of iterations =  3.0

     total cpu time spent up to now is       17.1 secs

     total energy              =     -22.80384821 Ry
     estimated scf accuracy    <          2.0E-10 Ry

     iteration #  3     ecut=    50.00 Ry     beta= 0.70
     Davidson diagonalization with overlap
     ethr =  2.50E-12,  avg # of iterations =  1.0

     total cpu time spent up to now is       17.2 secs

     End of self-consistent calculation

          k = 0.0000 0.0000 0.0000 (  6607 PWs)   bands (ev):

   -23.7965 -11.8899  -7.3228  -7.3228  -0.9746  -0.1895   0.6173   0.9672

          k = 0.0000 0.0927 0.0000 (  6585 PWs)   bands (ev):

   -23.6914 -11.7636  -7.7455  -7.5456  -0.8316  -0.0444   0.7633   1.1127

          k = 0.0000 0.1854 0.0000 (  6583 PWs)   bands (ev):

   -23.3767 -11.3870  -8.8702  -8.1105  -0.4024   0.3904   1.2016   1.5489

          k = 0.0000 0.2781 0.0000 (  6587 PWs)   bands (ev):

   -22.8548 -10.7677 -10.4144  -8.8177   0.3122   1.1125   1.9319   2.2734

          k = 0.0000 0.3708 0.0000 (  6555 PWs)   bands (ev):

   -22.1298 -12.1441  -9.9204  -9.5056   1.3102   2.0803   2.6269   2.9515

          k = 0.0000 0.4635 0.0000 (  6567 PWs)   bands (ev):

   -21.2093 -13.9079 -10.0783  -8.8788   0.7071   2.5818   3.4426   3.5455

          k = 0.0000 0.5562 0.0000 (  6581 PWs)   bands (ev):

   -20.1090 -15.6065 -10.4823  -7.7301  -1.0495   3.3190   4.1749   5.0134

          k = 0.0000 0.6489 0.0000 (  6588 PWs)   bands (ev):

   -18.9041 -17.1204 -10.6903  -6.7683  -2.3347   3.2265   5.9809   6.8472

          k = 0.0803 0.1390 0.0000 (  6583 PWs)   bands (ev):

   -23.4815 -11.5123  -8.4678  -7.9916  -0.5454   0.2456   1.0556   1.4036

          k = 0.0803 0.2317 0.0000 (  6572 PWs)   bands (ev):

   -23.0632 -11.0139  -9.7130  -8.7185   0.0268   0.8244   1.6400   1.9845

          k = 0.0803 0.3244 0.0000 (  6574 PWs)   bands (ev):

   -22.4398 -11.2915 -10.2796  -9.4761   0.8839   1.6864   2.5163   2.8444

          k = 0.0803 0.4171 0.0000 (  6577 PWs)   bands (ev):

   -21.6169 -13.0077 -10.1373  -9.3305   1.5497   2.0223   2.8663   3.6774

          k = 0.0803 0.5098 0.0000 (  6586 PWs)   bands (ev):

   -20.6053 -14.7249 -10.6404  -8.2189  -0.2454   3.4186   3.9197   4.2903

          k = 0.0803 0.6025 0.0000 (  6574 PWs)   bands (ev):

   -19.4342 -16.3425 -10.9528  -7.0969  -1.8181   3.7282   5.1477   5.9870

          k = 0.0803 0.6952 0.0000 (  6556 PWs)   bands (ev):

   -18.4693 -17.4598 -11.0585  -6.5051  -2.5663   3.6791   6.9990   7.1558

          k = 0.1606 0.2781 0.0000 (  6581 PWs)   bands (ev):

   -22.5434 -10.8098 -10.4000  -9.6806   0.7419   1.5459   2.3709   2.7092

          k = 0.1606 0.3708 0.0000 (  6570 PWs)   bands (ev):

   -21.8221 -12.2016 -10.5862  -9.5600   1.7406   2.0982   2.5601   3.3933

          k = 0.1606 0.4635 0.0000 (  6567 PWs)   bands (ev):

   -20.9073 -13.7906 -11.2597  -8.5255   0.4228   3.0178   3.8392   4.7022

          k = 0.1606 0.5562 0.0000 (  6559 PWs)   bands (ev):

   -19.8165 -15.4017 -11.7042  -7.3756  -1.2127   4.5517   5.0763   5.3789

[...]

          k = 0.1606 0.6489 0.0000 (  6560 PWs)   bands (ev):

   -18.6272 -16.8690 -11.9262  -6.3921  -2.4573   4.9417   6.3815   7.0676

          k = 0.2408 0.4171 0.0000 (  6568 PWs)   bands (ev):

   -21.0086 -13.2119 -11.7589  -8.6296   0.6970   2.8778   3.6821   4.5615

          k = 0.2408 0.5098 0.0000 (  6563 PWs)   bands (ev):

   -20.0124 -14.4941 -12.5780  -7.5312  -0.7860   4.2870   5.0530   6.0167

          k = 0.2408 0.6025 0.0000 (  6555 PWs)   bands (ev):

   -18.8667 -15.9206 -13.0036  -6.3896  -2.1807   5.9416   6.4842   6.7208

          k = 0.2408 0.6952 0.0000 (  6554 PWs)   bands (ev):

   -17.9312 -16.9656 -13.1360  -5.7377  -2.9216   6.6384   7.1296   7.6985

          k = 0.3211 0.5562 0.0000 (  6544 PWs)   bands (ev):

   -18.9552 -15.2720 -13.7043  -6.4026  -2.0371   5.8086   6.2507   7.5635

          k = 0.3211 0.6489 0.0000 (  6525 PWs)   bands (ev):

   -17.8155 -16.3197 -14.2451  -5.3175  -3.1768   6.6083   7.5006   8.3729

          k = 0.4014 0.6952 0.0000 (  6486 PWs)   bands (ev):

   -16.8601 -16.8601 -14.8666  -4.2273  -4.2273   6.4141   8.6766   8.6766

     the Fermi energy is    -4.2273 ev

!    total energy              =     -22.80384821 Ry
     estimated scf accuracy    <          7.1E-11 Ry
     smearing contrib. (-TS)   =      -0.00005015 Ry
     internal energy E=F+TS    =     -22.80379806 Ry

     The total energy is F=E-TS. E is the sum of the following terms:
     one-electron contribution =    -388.38629828 Ry
     hartree contribution      =     194.81774896 Ry
     xc contribution           =      -7.01913709 Ry
     ewald contribution        =     177.78388834 Ry

     convergence has been achieved in   2 iterations

     Forces acting on atoms (cartesian axes, Ry/au):

     atom    1 type  1   force =    -0.00000000   -0.00000000    0.00000000
     atom    2 type  1   force =     0.00000000    0.00000000    0.00000000

     Total force =     0.000000     Total SCF correction =     0.000000


     Computing stress (Cartesian axis) and pressure

          total   stress  (Ry/bohr**3)                   (kbar)     P=       -2.83
  -0.00000002   0.00000000   0.00000000           -0.00        0.00        0.00
   0.00000000  -0.00000002   0.00000000            0.00       -0.00        0.00
  -0.00000000  -0.00000000  -0.00005760           -0.00       -0.00       -8.47

     Message from routine bfgs:
     history already reset at previous step: stopping
     Energy error            =      5.2E-11
     Gradient error          =      1.0E-26
     Cell gradient error     =      2.5E-08


     bfgs converged in   9 scf cycles and   8 bfgs steps
     (criteria: energy <  1.0E-04 Ry, force <  1.0E-08Ry/Bohr, cell <  1.0E-03kbar)

     End of BFGS Geometry Optimization

     Final enthalpy =     -22.8038482115 Ry

     File ./work/LiC560.bfgs deleted, as requested
Begin final coordinates
     new unit-cell volume =    758.52953 a.u.^3 (   112.40248 Ang^3 )
     density =      0.35487 g/cm^3

CELL_PARAMETERS (alat=  5.60000000)
   0.830434517  -0.000000000   0.000000000
  -0.415217258   0.719177388   0.000000000
   0.000000000   0.000000000   7.232142857

ATOMIC_POSITIONS (crystal)
C             0.3333333333        0.6666666667        0.5000000000
C             0.6666666667        0.3333333333        0.5000000000
End final coordinates



     Writing output data file ./work/LiC560.save/

     Final scf calculation at the relaxed structure.
     The G-vectors are recalculated for the final unit cell
     Results may differ from those at the preceding step.
 
     Parallelization info
     --------------------
     sticks:   dense  smooth     PW     G-vecs:    dense   smooth      PW
     Min           9       9      2                 1123     1123     170
     Max          10      10      3                 1156     1156     215
     Sum         301     301     91                36327    36327    6409
 


     bravais-lattice index     =            4
     lattice parameter (alat)  =       5.6000  a.u.
     unit-cell volume          =     758.5295 (a.u.)^3
     number of atoms/cell      =            2
     number of atomic types    =            1
     number of electrons       =         8.00
     number of Kohn-Sham states=            8
     kinetic-energy cutoff     =      50.0000  Ry
     charge density cutoff     =     200.0000  Ry
     scf convergence threshold =      1.0E-10
     mixing beta               =       0.7000
     number of iterations used =            8  plain     mixing
     press convergence thresh. =      1.0E-03
     Exchange-correlation= PBE
                           (   1   4   3   4   0   0   0)

     celldm(1)=   5.600000  celldm(2)=   0.000000  celldm(3)=   7.232143
     celldm(4)=   0.000000  celldm(5)=   0.000000  celldm(6)=   0.000000

     crystal axes: (cart. coord. in units of alat)
               a(1) = (   0.830435  -0.000000   0.000000 )  
               a(2) = (  -0.415217   0.719177   0.000000 )  
               a(3) = (   0.000000   0.000000   7.232143 )  

     reciprocal axes: (cart. coord. in units 2 pi/alat)
               b(1) = (  1.204189  0.695239  0.000000 )  
               b(2) = (  0.000000  1.390478  0.000000 )  
               b(3) = (  0.000000  0.000000  0.138272 )  


     PseudoPot. # 1 for C  read from file:
     /home/yhkim/qe-6.7/pseudo/ONCV1/1.2/C_ONCV_PBE-1.2.upf
     MD5 check sum: 1a5f83a7b1f58d24996abe00ed223ac6
     Pseudo is Norm-conserving, Zval =  4.0
     Generated using ONCVPSP code by D. R. Hamann
     Using radial grid of  602 points,  4 beta functions with: 
                l(1) =   0
                l(2) =   0
                l(3) =   1
                l(4) =   1

     atomic species   valence    mass     pseudopotential
        C              4.00    12.01070     C ( 1.00)

     24 Sym. Ops., with inversion, found



   Cartesian axes

     site n.     atom                  positions (alat units)
         1           C   tau(   1) = (  -0.0000000   0.4794516   3.6160714  )
         2           C   tau(   2) = (   0.4152173   0.2397258   3.6160714  )

     number of k points=    27  Methfessel-Paxton smearing, width (Ry)=  0.0100
                       cart. coord. in units 2pi/alat
        k(    1) = (   0.0000000   0.0000000   0.0000000), wk =   0.0088889
        k(    2) = (   0.0000000   0.0926985   0.0000000), wk =   0.0533333
        k(    3) = (   0.0000000   0.1853970   0.0000000), wk =   0.0533333
        k(    4) = (   0.0000000   0.2780955   0.0000000), wk =   0.0533333
        k(    5) = (   0.0000000   0.3707940   0.0000000), wk =   0.0533333
        k(    6) = (   0.0000000   0.4634925   0.0000000), wk =   0.0533333
        k(    7) = (   0.0000000   0.5561910   0.0000000), wk =   0.0533333
        k(    8) = (   0.0000000   0.6488895   0.0000000), wk =   0.0533333
        k(    9) = (   0.0802793   0.1390478   0.0000000), wk =   0.0533333
        k(   10) = (   0.0802793   0.2317463   0.0000000), wk =   0.1066667
        k(   11) = (   0.0802793   0.3244448   0.0000000), wk =   0.1066667
        k(   12) = (   0.0802793   0.4171433   0.0000000), wk =   0.1066667
        k(   13) = (   0.0802793   0.5098418   0.0000000), wk =   0.1066667
        k(   14) = (   0.0802793   0.6025403   0.0000000), wk =   0.1066667
        k(   15) = (   0.0802793   0.6952388   0.0000000), wk =   0.0533333
        k(   16) = (   0.1605585   0.2780955   0.0000000), wk =   0.0533333
        k(   17) = (   0.1605585   0.3707940   0.0000000), wk =   0.1066667
        k(   18) = (   0.1605585   0.4634925   0.0000000), wk =   0.1066667
        k(   19) = (   0.1605585   0.5561910   0.0000000), wk =   0.1066667
        k(   20) = (   0.1605585   0.6488895   0.0000000), wk =   0.1066667
        k(   21) = (   0.2408378   0.4171433   0.0000000), wk =   0.0533333
        k(   22) = (   0.2408378   0.5098418   0.0000000), wk =   0.1066667
        k(   23) = (   0.2408378   0.6025403   0.0000000), wk =   0.1066667
        k(   24) = (   0.2408378   0.6952388   0.0000000), wk =   0.0533333
        k(   25) = (   0.3211170   0.5561910   0.0000000), wk =   0.0533333
        k(   26) = (   0.3211170   0.6488895   0.0000000), wk =   0.1066667
        k(   27) = (   0.4013963   0.6952388   0.0000000), wk =   0.0177778

     Dense  grid:    36327 G-vectors     FFT dimensions: (  24,  24, 192)

     Estimated max dynamical RAM per process >       1.97 MB

     Estimated total dynamical RAM >      62.90 MB
 ----2D----2D----2D----2D----2D----2D----2D----2D----2D----2D----2D----2D
  The code is running with the 2D cutoff
  Please refer to:
  Sohier, T., Calandra, M., & Mauri, F. (2017), 
  Density functional perturbation theory for gated two-dimensional heterostructu
 res:
  Theoretical developments and application to flexural phonons in graphene.
  Physical Review B, 96(7), 75448. https://doi.org/10.1103/PhysRevB.96.075448
 ----2D----2D----2D----2D----2D----2D----2D----2D----2D----2D----2D----2D

     Initial potential from superposition of free atoms

     starting charge    7.98607, renormalised to    8.00000

     negative rho (up, down):  1.138E-04 0.000E+00
     Starting wfcs are random

     total cpu time spent up to now is       17.8 secs

     Self-consistent Calculation

     iteration #  1     ecut=    50.00 Ry     beta= 0.70
     Davidson diagonalization with overlap
     c_bands:  2 eigenvalues not converged
     c_bands:  2 eigenvalues not converged
     c_bands:  3 eigenvalues not converged
     c_bands:  4 eigenvalues not converged
     c_bands:  4 eigenvalues not converged
     c_bands:  4 eigenvalues not converged
     c_bands:  2 eigenvalues not converged
     c_bands:  2 eigenvalues not converged
     c_bands:  3 eigenvalues not converged
     c_bands:  4 eigenvalues not converged
     c_bands:  4 eigenvalues not converged
     c_bands:  4 eigenvalues not converged
     c_bands:  3 eigenvalues not converged
     c_bands:  2 eigenvalues not converged
     c_bands:  2 eigenvalues not converged
     c_bands:  5 eigenvalues not converged
     c_bands:  4 eigenvalues not converged
     c_bands:  4 eigenvalues not converged
     c_bands:  3 eigenvalues not converged
     c_bands:  3 eigenvalues not converged
     c_bands:  4 eigenvalues not converged
     c_bands:  3 eigenvalues not converged
     c_bands:  4 eigenvalues not converged
     c_bands:  3 eigenvalues not converged
     c_bands:  3 eigenvalues not converged
     c_bands:  3 eigenvalues not converged
     c_bands:  3 eigenvalues not converged
     ethr =  1.00E-06,  avg # of iterations = 23.0

     negative rho (up, down):  2.256E-05 0.000E+00

     total cpu time spent up to now is       18.6 secs

     total energy              =     -22.76146698 Ry
     estimated scf accuracy    <       0.19378484 Ry

     iteration #  2     ecut=    50.00 Ry     beta= 0.70
     Davidson diagonalization with overlap
     ethr =  2.42E-03,  avg # of iterations =  2.6

     negative rho (up, down):  2.837E-06 0.000E+00

     total cpu time spent up to now is       18.7 secs

     total energy              =     -22.79055650 Ry
     estimated scf accuracy    <       0.00232824 Ry

     iteration #  3     ecut=    50.00 Ry     beta= 0.70
     Davidson diagonalization with overlap
     ethr =  2.91E-05,  avg # of iterations =  9.0

     total cpu time spent up to now is       18.9 secs

     total energy              =     -22.79095178 Ry
     estimated scf accuracy    <       0.00017151 Ry

     iteration #  4     ecut=    50.00 Ry     beta= 0.70
     Davidson diagonalization with overlap
     ethr =  2.14E-06,  avg # of iterations =  5.3

     total cpu time spent up to now is       19.1 secs

     total energy              =     -22.79096466 Ry
     estimated scf accuracy    <       0.00000121 Ry

     iteration #  5     ecut=    50.00 Ry     beta= 0.70
     Davidson diagonalization with overlap
     ethr =  1.51E-08,  avg # of iterations =  3.7

     total cpu time spent up to now is       19.2 secs

     total energy              =     -22.79096604 Ry
     estimated scf accuracy    <       0.00000004 Ry

     iteration #  6     ecut=    50.00 Ry     beta= 0.70
     Davidson diagonalization with overlap
     ethr =  4.45E-10,  avg # of iterations =  2.7

     total cpu time spent up to now is       19.3 secs

     total energy              =     -22.79096605 Ry
     estimated scf accuracy    <          7.4E-10 Ry

     iteration #  7     ecut=    50.00 Ry     beta= 0.70
     Davidson diagonalization with overlap
     ethr =  9.23E-12,  avg # of iterations =  3.1

     total cpu time spent up to now is       19.5 secs

     End of self-consistent calculation

          k = 0.0000 0.0000 0.0000 (  4507 PWs)   bands (ev):

   -23.8205 -11.8960  -7.3091  -7.3091  -0.9811  -0.2033   0.5848   0.9398

          k = 0.0000 0.0927 0.0000 (  4505 PWs)   bands (ev):

   -23.7152 -11.7687  -7.7332  -7.5319  -0.8380  -0.0580   0.7309   1.0854

          k = 0.0000 0.1854 0.0000 (  4525 PWs)   bands (ev):

   -23.4003 -11.3920  -8.8602  -8.0966  -0.4087   0.3769   1.1692   1.5215

          k = 0.0000 0.2781 0.0000 (  4533 PWs)   bands (ev):

   -22.8781 -10.7726 -10.4070  -8.8053   0.3063   1.0993   1.8997   2.2460

          k = 0.0000 0.3708 0.0000 (  4539 PWs)   bands (ev):

   -22.1524 -12.1436  -9.9248  -9.4947   1.3048   2.0704   2.6355   2.9197

          k = 0.0000 0.4635 0.0000 (  4549 PWs)   bands (ev):

   -21.2311 -13.9139 -10.0694  -8.8815   0.7161   2.5774   3.4306   3.5375

          k = 0.0000 0.5562 0.0000 (  4549 PWs)   bands (ev):

   -20.1298 -15.6171 -10.4733  -7.7314  -1.0433   3.3072   4.1692   5.0026

          k = 0.0000 0.6489 0.0000 (  4555 PWs)   bands (ev):

   -18.9241 -17.1333 -10.6828  -6.7685  -2.3316   3.2112   5.9775   6.8385

          k = 0.0803 0.1390 0.0000 (  4531 PWs)   bands (ev):

   -23.5053 -11.5175  -8.4571  -7.9778  -0.5517   0.2320   1.0232   1.3762

          k = 0.0803 0.2317 0.0000 (  4525 PWs)   bands (ev):

   -23.0866 -11.0186  -9.7039  -8.7060   0.0208   0.8111   1.6077   1.9570

          k = 0.0803 0.3244 0.0000 (  4525 PWs)   bands (ev):

   -22.4627 -11.2879 -10.2839  -9.4644   0.8782   1.6737   2.4842   2.8174

          k = 0.0803 0.4171 0.0000 (  4536 PWs)   bands (ev):

   -21.6391 -13.0109 -10.1284  -9.3342   1.5611   2.0172   2.8542   3.6464

          k = 0.0803 0.5098 0.0000 (  4549 PWs)   bands (ev):

   -20.6265 -14.7336 -10.6331  -8.2213  -0.2375   3.4154   3.9110   4.2790

          k = 0.0803 0.6025 0.0000 (  4541 PWs)   bands (ev):

   -19.4542 -16.3545 -10.9455  -7.0979  -1.8131   3.7177   5.1433   5.9775

          k = 0.0803 0.6952 0.0000 (  4558 PWs)   bands (ev):

   -18.4906 -17.4716 -11.0525  -6.5056  -2.5642   3.6669   6.9969   7.1539

          k = 0.1606 0.2781 0.0000 (  4523 PWs)   bands (ev):

   -22.5664 -10.8052 -10.4044  -9.6722   0.7361   1.5330   2.3386   2.6817

          k = 0.1606 0.3708 0.0000 (  4517 PWs)   bands (ev):

   -21.8444 -12.2020 -10.5781  -9.5635   1.7352   2.1147   2.5483   3.3612

          k = 0.1606 0.4635 0.0000 (  4528 PWs)   bands (ev):

   -20.9287 -13.7963 -11.2537  -8.5280   0.4316   3.0132   3.8280   4.6710

          k = 0.1606 0.5562 0.0000 (  4533 PWs)   bands (ev):

   -19.8368 -15.4118 -11.6995  -7.3782  -1.2077   4.5494   5.0752   5.3695

          k = 0.1606 0.6489 0.0000 (  4527 PWs)   bands (ev):

   -18.6469 -16.8814 -11.9221  -6.3927  -2.4542   4.9401   6.3786   7.0626

          k = 0.2408 0.4171 0.0000 (  4529 PWs)   bands (ev):

   -21.0302 -13.2167 -11.7550  -8.6328   0.7072   2.8729   3.6709   4.5296

          k = 0.2408 0.5098 0.0000 (  4519 PWs)   bands (ev):

   -20.0330 -14.5023 -12.5752  -7.5330  -0.7784   4.2831   5.0439   5.9852

          k = 0.2408 0.6025 0.0000 (  4529 PWs)   bands (ev):

   -18.8859 -15.9325 -13.0032  -6.3905  -2.1772   5.9403   6.4794   6.7318

          k = 0.2408 0.6952 0.0000 (  4522 PWs)   bands (ev):

   -17.9510 -16.9774 -13.1358  -5.7368  -2.9190   6.6508   7.1265   7.7014

          k = 0.3211 0.5562 0.0000 (  4507 PWs)   bands (ev):

   -18.9744 -15.2832 -13.7028  -6.4025  -2.0311   5.8064   6.2461   7.5350

          k = 0.3211 0.6489 0.0000 (  4512 PWs)   bands (ev):

   -17.8332 -16.3334 -14.2453  -5.3165  -3.1748   6.6028   7.5040   8.4009

          k = 0.4014 0.6952 0.0000 (  4521 PWs)   bands (ev):

   -16.8767 -16.8767 -14.8673  -4.2254  -4.2254   6.4070   8.6978   8.6978

     the Fermi energy is    -4.2254 ev

!    total energy              =     -22.79096605 Ry
     estimated scf accuracy    <          1.1E-11 Ry
     smearing contrib. (-TS)   =      -0.00005015 Ry
     internal energy E=F+TS    =     -22.79091590 Ry

     The total energy is F=E-TS. E is the sum of the following terms:
     one-electron contribution =    -388.35758315 Ry
     hartree contribution      =     194.80131646 Ry
     xc contribution           =      -7.01853752 Ry
     ewald contribution        =     177.78388831 Ry

     convergence has been achieved in   7 iterations

     Forces acting on atoms (cartesian axes, Ry/au):

     atom    1 type  1   force =     0.00000000    0.00000000    0.00000000
     atom    2 type  1   force =     0.00000000    0.00000000    0.00000000

     Total force =     0.000000     Total SCF correction =     0.000000


     Computing stress (Cartesian axis) and pressure

          total   stress  (Ry/bohr**3)                   (kbar)     P=      -13.10
  -0.00007954   0.00000000  -0.00000000          -11.70        0.00       -0.00
   0.00000000  -0.00007954  -0.00000000            0.00      -11.70       -0.00
  -0.00000000  -0.00000000  -0.00010812           -0.00       -0.00      -15.90


     Writing output data file ./work/LiC560.save/
 
     init_run     :      0.17s CPU      0.19s WALL (       2 calls)
     electrons    :     17.32s CPU     18.64s WALL (      10 calls)
     update_pot   :      0.14s CPU      0.15s WALL (       8 calls)
     forces       :      0.10s CPU      0.11s WALL (      10 calls)
     stress       :      0.29s CPU      0.30s WALL (      10 calls)

     Called by init_run:
     wfcinit      :      0.10s CPU      0.11s WALL (       2 calls)
     potinit      :      0.04s CPU      0.05s WALL (       2 calls)
     hinit0       :      0.01s CPU      0.01s WALL (       2 calls)

     Called by electrons:
     c_bands      :     15.19s CPU     16.17s WALL (      82 calls)
     sum_band     :      1.89s CPU      2.00s WALL (      82 calls)
     v_of_rho     :      0.19s CPU      0.21s WALL (      89 calls)
     mix_rho      :      0.03s CPU      0.04s WALL (      82 calls)

     Called by c_bands:
     init_us_2    :      0.14s CPU      0.15s WALL (    5022 calls)
     cegterg      :     14.85s CPU     15.78s WALL (    2218 calls)

     Called by *egterg:
     cdiaghg      :      1.17s CPU      1.25s WALL (   12707 calls)
     h_psi        :     12.79s CPU     13.58s WALL (   13062 calls)
     g_psi        :      0.04s CPU      0.04s WALL (   10790 calls)

     Called by h_psi:
     h_psi:calbec :      0.43s CPU      0.46s WALL (   13062 calls)
     vloc_psi     :     12.13s CPU     12.88s WALL (   13062 calls)
     add_vuspsi   :      0.12s CPU      0.13s WALL (   13062 calls)

     General routines
     calbec       :      0.46s CPU      0.49s WALL (   14412 calls)
     fft          :      0.19s CPU      0.20s WALL (     971 calls)
     ffts         :      0.01s CPU      0.01s WALL (      82 calls)
     fftw         :     13.23s CPU     14.04s WALL (  147208 calls)
 
     Parallel routines
     fft_scatt_xy :      0.71s CPU      0.76s WALL (  148261 calls)
     fft_scatt_yz :      6.01s CPU      6.38s WALL (  148261 calls)
 
     PWSCF        :     18.12s CPU     19.74s WALL

 
   This run was terminated on:  15:49: 7  19Jan2024            

=------------------------------------------------------------------------------=
   JOB DONE.
=------------------------------------------------------------------------------=
