
     Program PWSCF v.6.7MaX starts on 19Jan2024 at 14:18:53 

     This program is part of the open-source Quantum ESPRESSO suite
     for quantum simulation of materials; please cite
         "P. Giannozzi et al., J. Phys.:Condens. Matter 21 395502 (2009);
         "P. Giannozzi et al., J. Phys.:Condens. Matter 29 465901 (2017);
          URL http://www.quantum-espresso.org", 
     in publications or presentations arising from this work. More details at
     http://www.quantum-espresso.org/quote

     Parallel version (MPI), running on    32 processors

     MPI processes distributed on     1 nodes
     R & G space division:  proc/nbgrp/npool/nimage =      32
     Waiting for input...
     Reading input from standard input

     Current dimensions of program PWSCF are:
     Max number of different atomic species (ntypx) = 10
     Max number of k-points (npk) =  40000
     Max angular momentum in pseudopotentials (lmaxx) =  3
     Message from routine read_pp_mesh:
     mesh size missing, using the one in header

     Subspace diagonalization in iterative solution of the eigenvalue problem:
     a serial algorithm will be used

 
     Parallelization info
     --------------------
     sticks:   dense  smooth     PW     G-vecs:    dense   smooth      PW
     Min           9       9      3                 1195     1195     212
     Max          10      10      5                 1256     1256     227
     Sum         313     313    109                39627    39627    7087
 


     bravais-lattice index     =            4
     lattice parameter (alat)  =       4.8900  a.u.
     unit-cell volume          =     838.6937 (a.u.)^3
     number of atoms/cell      =            2
     number of atomic types    =            1
     number of electrons       =         8.00
     number of Kohn-Sham states=            8
     kinetic-energy cutoff     =      50.0000  Ry
     charge density cutoff     =     200.0000  Ry
     scf convergence threshold =      1.0E-08
     mixing beta               =       0.7000
     number of iterations used =            8  plain     mixing
     energy convergence thresh.=      1.0E-04
     force convergence thresh. =      1.0E-08
     press convergence thresh. =      1.0E-03
     Exchange-correlation= PBE
                           (   1   4   3   4   0   0   0)
     nstep                     =           50


     celldm(1)=   4.890000  celldm(2)=   0.000000  celldm(3)=   8.282209
     celldm(4)=   0.000000  celldm(5)=   0.000000  celldm(6)=   0.000000

     crystal axes: (cart. coord. in units of alat)
               a(1) = (   1.000000   0.000000   0.000000 )  
               a(2) = (  -0.500000   0.866025   0.000000 )  
               a(3) = (   0.000000   0.000000   8.282209 )  

     reciprocal axes: (cart. coord. in units 2 pi/alat)
               b(1) = (  1.000000  0.577350  0.000000 )  
               b(2) = (  0.000000  1.154701  0.000000 )  
               b(3) = (  0.000000  0.000000  0.120741 )  


     PseudoPot. # 1 for C  read from file:
     /home/yhkim/qe-6.7/pseudo/ONCV1/1.2/C_ONCV_PBE-1.2.upf
     MD5 check sum: 1a5f83a7b1f58d24996abe00ed223ac6
     Pseudo is Norm-conserving, Zval =  4.0
     Generated using ONCVPSP code by D. R. Hamann
     Using radial grid of  602 points,  4 beta functions with: 
                l(1) =   0
                l(2) =   0
                l(3) =   1
                l(4) =   1

     atomic species   valence    mass     pseudopotential
        C              4.00    12.01070     C ( 1.00)

     24 Sym. Ops., with inversion, found



   Cartesian axes

     site n.     atom                  positions (alat units)
         1           C   tau(   1) = (  -0.0000000   0.5773503   4.1411043  )
         2           C   tau(   2) = (   0.5000000   0.2886751   4.1411043  )

     number of k points=    27  Methfessel-Paxton smearing, width (Ry)=  0.0100
                       cart. coord. in units 2pi/alat
        k(    1) = (   0.0000000   0.0000000   0.0000000), wk =   0.0088889
        k(    2) = (   0.0000000   0.0769800   0.0000000), wk =   0.0533333
        k(    3) = (   0.0000000   0.1539601   0.0000000), wk =   0.0533333
        k(    4) = (   0.0000000   0.2309401   0.0000000), wk =   0.0533333
        k(    5) = (   0.0000000   0.3079201   0.0000000), wk =   0.0533333
        k(    6) = (   0.0000000   0.3849002   0.0000000), wk =   0.0533333
        k(    7) = (   0.0000000   0.4618802   0.0000000), wk =   0.0533333
        k(    8) = (   0.0000000   0.5388603   0.0000000), wk =   0.0533333
        k(    9) = (   0.0666667   0.1154701   0.0000000), wk =   0.0533333
        k(   10) = (   0.0666667   0.1924501   0.0000000), wk =   0.1066667
        k(   11) = (   0.0666667   0.2694301   0.0000000), wk =   0.1066667
        k(   12) = (   0.0666667   0.3464102   0.0000000), wk =   0.1066667
        k(   13) = (   0.0666667   0.4233902   0.0000000), wk =   0.1066667
        k(   14) = (   0.0666667   0.5003702   0.0000000), wk =   0.1066667
        k(   15) = (   0.0666667   0.5773503   0.0000000), wk =   0.0533333
        k(   16) = (   0.1333333   0.2309401   0.0000000), wk =   0.0533333
        k(   17) = (   0.1333333   0.3079201   0.0000000), wk =   0.1066667
        k(   18) = (   0.1333333   0.3849002   0.0000000), wk =   0.1066667
        k(   19) = (   0.1333333   0.4618802   0.0000000), wk =   0.1066667
        k(   20) = (   0.1333333   0.5388603   0.0000000), wk =   0.1066667
        k(   21) = (   0.2000000   0.3464102   0.0000000), wk =   0.0533333
        k(   22) = (   0.2000000   0.4233902   0.0000000), wk =   0.1066667
        k(   23) = (   0.2000000   0.5003702   0.0000000), wk =   0.1066667
        k(   24) = (   0.2000000   0.5773503   0.0000000), wk =   0.0533333
        k(   25) = (   0.2666667   0.4618802   0.0000000), wk =   0.0533333
        k(   26) = (   0.2666667   0.5388603   0.0000000), wk =   0.1066667
        k(   27) = (   0.3333333   0.5773503   0.0000000), wk =   0.0177778

     Dense  grid:    39627 G-vectors     FFT dimensions: (  24,  24, 192)

     Estimated max dynamical RAM per process >       2.07 MB

     Estimated total dynamical RAM >      66.10 MB
 ----2D----2D----2D----2D----2D----2D----2D----2D----2D----2D----2D----2D
  The code is running with the 2D cutoff
  Please refer to:
  Sohier, T., Calandra, M., & Mauri, F. (2017), 
  Density functional perturbation theory for gated two-dimensional heterostructu
 res:
  Theoretical developments and application to flexural phonons in graphene.
  Physical Review B, 96(7), 75448. https://doi.org/10.1103/PhysRevB.96.075448
 ----2D----2D----2D----2D----2D----2D----2D----2D----2D----2D----2D----2D

     Initial potential from superposition of free atoms

     starting charge    7.98607, renormalised to    8.00000

     negative rho (up, down):  1.215E-04 0.000E+00
     Starting wfcs are random

     total cpu time spent up to now is        0.1 secs

     Self-consistent Calculation

     iteration #  1     ecut=    50.00 Ry     beta= 0.70
     Davidson diagonalization with overlap
     ethr =  1.00E-02,  avg # of iterations = 11.8

     negative rho (up, down):  1.234E-07 0.000E+00

     total cpu time spent up to now is        0.6 secs

     total energy              =     -22.74792586 Ry
     estimated scf accuracy    <       0.10599922 Ry

     iteration #  2     ecut=    50.00 Ry     beta= 0.70
     Davidson diagonalization with overlap
     ethr =  1.32E-03,  avg # of iterations =  2.4

     total cpu time spent up to now is        0.7 secs

     total energy              =     -22.76638397 Ry
     estimated scf accuracy    <       0.00198808 Ry

     iteration #  3     ecut=    50.00 Ry     beta= 0.70
     Davidson diagonalization with overlap
     c_bands:  1 eigenvalues not converged
     ethr =  2.49E-05,  avg # of iterations =  9.4

     total cpu time spent up to now is        1.0 secs

     total energy              =     -22.76950411 Ry
     estimated scf accuracy    <       0.00012665 Ry

     iteration #  4     ecut=    50.00 Ry     beta= 0.70
     Davidson diagonalization with overlap
     ethr =  1.58E-06,  avg # of iterations =  6.4

     total cpu time spent up to now is        1.2 secs

     total energy              =     -22.76954286 Ry
     estimated scf accuracy    <       0.00000023 Ry

     iteration #  5     ecut=    50.00 Ry     beta= 0.70
     Davidson diagonalization with overlap
     ethr =  2.86E-09,  avg # of iterations =  4.7

     total cpu time spent up to now is        1.4 secs

     total energy              =     -22.76954544 Ry
     estimated scf accuracy    <       0.00000003 Ry

     iteration #  6     ecut=    50.00 Ry     beta= 0.70
     Davidson diagonalization with overlap
     ethr =  3.13E-10,  avg # of iterations =  2.0

     total cpu time spent up to now is        1.5 secs

     End of self-consistent calculation

          k = 0.0000 0.0000 0.0000 (  5083 PWs)   bands (ev):

   -23.0482 -11.3317  -7.7314  -7.7314  -0.9496  -0.1988   0.5994   0.9523

          k = 0.0000 0.0770 0.0000 (  5097 PWs)   bands (ev):

   -22.9521 -11.2202  -8.1397  -7.9233  -0.8199  -0.0679   0.7316   1.0836

          k = 0.0000 0.1540 0.0000 (  5077 PWs)   bands (ev):

   -22.6647 -10.8880  -9.2070  -8.4082  -0.4309   0.3241   1.1281   1.4769

          k = 0.0000 0.2309 0.0000 (  5035 PWs)   bands (ev):

   -22.1881 -10.6542 -10.3416  -9.0208   0.2166   0.9743   1.7879   2.1272

          k = 0.0000 0.3079 0.0000 (  5020 PWs)   bands (ev):

   -21.5273 -12.2588  -9.6195  -9.5967   1.1196   1.2866   1.9163   2.0661

          k = 0.0000 0.3849 0.0000 (  5004 PWs)   bands (ev):

   -20.6915 -13.8805 -10.1205  -8.6836  -0.2724   1.7363   2.2909   3.0671

          k = 0.0000 0.4619 0.0000 (  4986 PWs)   bands (ev):

   -19.7042 -15.4232 -10.4761  -7.6845  -1.7671   1.5085   3.6938   4.4807

          k = 0.0000 0.5389 0.0000 (  4928 PWs)   bands (ev):

   -18.6843 -16.7276 -10.6563  -6.8620  -2.8524   1.3876   5.3335   6.1176

          k = 0.0667 0.1155 0.0000 (  5083 PWs)   bands (ev):

   -22.7604 -10.9984  -8.8325  -8.3047  -0.5605   0.1935   0.9959   1.3459

          k = 0.0667 0.1925 0.0000 (  5051 PWs)   bands (ev):

   -22.3783 -10.5585 -10.0126  -8.9340  -0.0421   0.7154   1.5246   1.8695

          k = 0.0667 0.2694 0.0000 (  5024 PWs)   bands (ev):

   -21.8095 -11.4824  -9.9119  -9.5994   0.7340   1.4836   1.9622   2.3149

          k = 0.0667 0.3464 0.0000 (  5017 PWs)   bands (ev):

   -21.0607 -13.0648 -10.1840  -9.0786   0.4349   1.7620   2.3364   2.5443

          k = 0.0667 0.4234 0.0000 (  4993 PWs)   bands (ev):

   -20.1460 -14.6334 -10.6294  -8.1078  -1.0936   2.0481   3.0565   3.8307

          k = 0.0667 0.5004 0.0000 (  4973 PWs)   bands (ev):

   -19.1117 -16.0799 -10.9062  -7.1390  -2.4294   1.8707   4.5791   5.3495

          k = 0.0667 0.5774 0.0000 (  4952 PWs)   bands (ev):

   -18.3661 -16.9656 -11.0001  -6.6368  -3.0581   1.8096   6.2325   6.4031

          k = 0.1333 0.2309 0.0000 (  5031 PWs)   bands (ev):

   -21.9040 -11.0682 -10.0174  -9.7674   0.6052   1.3656   2.1854   2.1943

          k = 0.1333 0.3079 0.0000 (  5014 PWs)   bands (ev):

   -21.2467 -12.3666 -10.5708  -9.2792   0.8750   1.5087   2.2725   3.1086

          k = 0.1333 0.3849 0.0000 (  5009 PWs)   bands (ev):

   -20.4166 -13.8162 -11.1858  -8.3729  -0.5528   2.6620   3.3567   3.4260

          k = 0.1333 0.4619 0.0000 (  4973 PWs)   bands (ev):

   -19.4374 -15.2683 -11.5931  -7.3729  -1.9462   3.1160   4.0726   4.8031

          k = 0.1333 0.5389 0.0000 (  4975 PWs)   bands (ev):

   -18.4269 -16.5318 -11.7976  -6.5306  -3.0015   2.9947   5.6876   6.2820

          k = 0.2000 0.3464 0.0000 (  5019 PWs)   bands (ev):

   -20.5076 -13.3534 -11.5861  -8.4631  -0.3392   2.5366   3.2866   4.1643

          k = 0.2000 0.4234 0.0000 (  4999 PWs)   bands (ev):

   -19.6076 -14.5266 -12.3294  -7.5044  -1.6162   3.8075   4.5114   4.8418

          k = 0.2000 0.5004 0.0000 (  4992 PWs)   bands (ev):

   -18.5936 -15.7812 -12.7399  -6.5161  -2.8123   4.6379   5.3170   5.7703

          k = 0.2000 0.5774 0.0000 (  4980 PWs)   bands (ev):

   -17.8518 -16.6158 -12.8691  -5.9603  -3.4405   4.5770   6.3336   6.7932

          k = 0.2667 0.4619 0.0000 (  5012 PWs)   bands (ev):

   -18.6615 -15.3145 -13.2753  -6.5230  -2.7115   5.1699   5.5713   6.2467

          k = 0.2667 0.5389 0.0000 (  5004 PWs)   bands (ev):

   -17.6753 -16.2353 -13.7569  -5.5846  -3.7020   5.9246   6.2085   6.6693

          k = 0.3333 0.5774 0.0000 (  5010 PWs)   bands (ev):

   -16.8294 -16.8294 -14.2028  -4.6307  -4.6307   5.7840   7.0813   7.0814

     the Fermi energy is    -4.6307 ev

!    total energy              =     -22.76954544 Ry
     estimated scf accuracy    <          1.1E-09 Ry
     smearing contrib. (-TS)   =      -0.00005015 Ry
     internal energy E=F+TS    =     -22.76949529 Ry

     The total energy is F=E-TS. E is the sum of the following terms:
     one-electron contribution =    -350.87284101 Ry
     hartree contribution      =     175.96786798 Ry
     xc contribution           =      -6.81020395 Ry
     ewald contribution        =     158.94568168 Ry

     convergence has been achieved in   6 iterations

     Forces acting on atoms (cartesian axes, Ry/au):

     atom    1 type  1   force =     0.00000000    0.00000000    0.00000000
     atom    2 type  1   force =     0.00000000    0.00000000    0.00000000

     Total force =     0.000000     Total SCF correction =     0.000000


     Computing stress (Cartesian axis) and pressure

          total   stress  (Ry/bohr**3)                   (kbar)     P=      -63.32
  -0.00059891   0.00000000   0.00000000          -88.10        0.00        0.00
   0.00000000  -0.00059891   0.00000000            0.00      -88.10        0.00
   0.00000000   0.00000000  -0.00009360            0.00        0.00      -13.77


     BFGS Geometry Optimization
     Energy error            =      0.0E+00
     Gradient error          =      0.0E+00
     Cell gradient error     =      6.0E-04


     number of scf cycles    =   1
     number of bfgs steps    =   0

     enthalpy new            =     -22.7695454406 Ry

     new trust radius        =       0.0867229453 bohr
     new conv_thr            =       0.0000000100 Ry

     new unit-cell volume =    813.76656 a.u.^3 (   120.58776 Ang^3 )
     density =      0.33078 g/cm^3

CELL_PARAMETERS (alat=  4.89000000)
   0.985027224   0.000000000   0.000000000
  -0.492513612   0.853058599   0.000000000
   0.000000000   0.000000000   8.282208589

ATOMIC_POSITIONS (crystal)
C             0.3333333333        0.6666666667        0.5000000000
C             0.6666666667        0.3333333333        0.5000000000



     Writing output data file ./work/LiC489.save/
     NEW-OLD atomic charge density approx. for the potential

     negative rho (up, down):  7.266E-06 0.000E+00
     extrapolated charge    7.75537, renormalised to    8.00000

     total cpu time spent up to now is        1.6 secs

     Self-consistent Calculation

     iteration #  1     ecut=    50.00 Ry     beta= 0.70
     Davidson diagonalization with overlap
     c_bands:  1 eigenvalues not converged
     c_bands:  2 eigenvalues not converged
     c_bands:  3 eigenvalues not converged
     c_bands:  1 eigenvalues not converged
     c_bands:  1 eigenvalues not converged
     c_bands:  4 eigenvalues not converged
     c_bands:  1 eigenvalues not converged
     c_bands:  1 eigenvalues not converged
     c_bands:  1 eigenvalues not converged
     c_bands:  1 eigenvalues not converged
     c_bands:  3 eigenvalues not converged
     c_bands:  2 eigenvalues not converged
     c_bands:  1 eigenvalues not converged
     c_bands:  1 eigenvalues not converged
     c_bands:  2 eigenvalues not converged
     c_bands:  1 eigenvalues not converged
     ethr =  1.00E-06,  avg # of iterations = 18.4

     negative rho (up, down):  7.424E-07 0.000E+00

     total cpu time spent up to now is        2.1 secs

     total energy              =     -22.75823371 Ry
     estimated scf accuracy    <       0.01315995 Ry

     iteration #  2     ecut=    50.00 Ry     beta= 0.70
     Davidson diagonalization with overlap
     ethr =  1.64E-04,  avg # of iterations = 10.3

     negative rho (up, down):  1.613E-07 0.000E+00

     total cpu time spent up to now is        2.3 secs

     total energy              =     -22.78337808 Ry
     estimated scf accuracy    <       0.01171223 Ry

     iteration #  3     ecut=    50.00 Ry     beta= 0.70
     Davidson diagonalization with overlap
     ethr =  1.46E-04,  avg # of iterations =  1.0

     total cpu time spent up to now is        2.5 secs

     total energy              =     -22.78242315 Ry
     estimated scf accuracy    <       0.00255683 Ry

     iteration #  4     ecut=    50.00 Ry     beta= 0.70
     Davidson diagonalization with overlap
     ethr =  3.20E-05,  avg # of iterations =  2.7

     total cpu time spent up to now is        2.6 secs

     total energy              =     -22.78276175 Ry
     estimated scf accuracy    <       0.00004181 Ry

     iteration #  5     ecut=    50.00 Ry     beta= 0.70
     Davidson diagonalization with overlap
     c_bands:  1 eigenvalues not converged
     c_bands:  1 eigenvalues not converged
     c_bands:  1 eigenvalues not converged
     ethr =  5.23E-07,  avg # of iterations =  6.7

     total cpu time spent up to now is        2.8 secs

     total energy              =     -22.78277664 Ry
     estimated scf accuracy    <       0.00001206 Ry

     iteration #  6     ecut=    50.00 Ry     beta= 0.70
     Davidson diagonalization with overlap
     ethr =  1.51E-07,  avg # of iterations =  1.3

     total cpu time spent up to now is        2.9 secs

     total energy              =     -22.78276618 Ry
     estimated scf accuracy    <       0.00002095 Ry

     iteration #  7     ecut=    50.00 Ry     beta= 0.70
     Davidson diagonalization with overlap
     ethr =  1.51E-07,  avg # of iterations =  2.4

     total cpu time spent up to now is        3.0 secs

     total energy              =     -22.78276820 Ry
     estimated scf accuracy    <       0.00000240 Ry

     iteration #  8     ecut=    50.00 Ry     beta= 0.70
     Davidson diagonalization with overlap
     ethr =  2.99E-08,  avg # of iterations =  1.0

     total cpu time spent up to now is        3.1 secs

     total energy              =     -22.78276807 Ry
     estimated scf accuracy    <       0.00000140 Ry

     iteration #  9     ecut=    50.00 Ry     beta= 0.70
     Davidson diagonalization with overlap
     ethr =  1.75E-08,  avg # of iterations =  1.1

     total cpu time spent up to now is        3.3 secs

     total energy              =     -22.78276815 Ry
     estimated scf accuracy    <       0.00000003 Ry

     iteration # 10     ecut=    50.00 Ry     beta= 0.70
     Davidson diagonalization with overlap
     ethr =  3.83E-10,  avg # of iterations =  2.9

     total cpu time spent up to now is        3.4 secs

     End of self-consistent calculation

          k = 0.0000 0.0000 0.0000 (  5083 PWs)   bands (ev):

   -23.2763 -11.4956  -7.6201  -7.6201  -0.9588  -0.1989   0.5981   0.9512

          k =-0.0000 0.0782 0.0000 (  5097 PWs)   bands (ev):

   -23.1775 -11.3798  -8.0324  -7.8213  -0.8252  -0.0639   0.7343   1.0866

          k =-0.0000 0.1563 0.0000 (  5077 PWs)   bands (ev):

   -22.8820 -11.0348  -9.1151  -8.3293  -0.4246   0.3406   1.1429   1.4923

          k =-0.0000 0.2345 0.0000 (  5035 PWs)   bands (ev):

   -22.3918 -10.5900 -10.4672  -8.9691   0.2425   1.0119   1.8234   2.1650

          k =-0.0000 0.3126 0.0000 (  5020 PWs)   bands (ev):

   -21.7119 -12.2314  -9.6926  -9.5934   1.1731   1.6287   2.0117   2.5652

          k =-0.0000 0.3908 0.0000 (  5004 PWs)   bands (ev):

   -20.8507 -13.8952 -10.1151  -8.7419   0.0138   2.2205   2.4165   3.1732

          k =-0.0000 0.4689 0.0000 (  4986 PWs)   bands (ev):

   -19.8294 -15.4844 -10.4850  -7.6991  -1.5574   2.0342   3.8287   4.6332

          k =-0.0000 0.5471 0.0000 (  4928 PWs)   bands (ev):

   -18.7554 -16.8500 -10.6727  -6.8365  -2.7003   1.9171   5.5196   6.3281

          k = 0.0677 0.1172 0.0000 (  5083 PWs)   bands (ev):

   -22.9804 -11.1495  -8.7327  -8.2212  -0.5580   0.2059   1.0068   1.3572

          k = 0.0677 0.1954 0.0000 (  5051 PWs)   bands (ev):

   -22.5875 -10.6925  -9.9311  -8.8788  -0.0240   0.7443   1.5516   1.8974

          k = 0.0677 0.2735 0.0000 (  5024 PWs)   bands (ev):

   -22.0024 -11.4324 -10.0205  -9.5711   0.7756   1.5423   2.3615   2.3677

          k = 0.0677 0.3517 0.0000 (  5017 PWs)   bands (ev):

   -21.2314 -13.0543 -10.1781  -9.1535   0.7610   1.8363   2.6341   2.8568

          k = 0.0677 0.4298 0.0000 (  4993 PWs)   bands (ev):

   -20.2876 -14.6670 -10.6401  -8.1417  -0.8459   2.5750   3.1765   3.9617

          k = 0.0677 0.5080 0.0000 (  4973 PWs)   bands (ev):

   -19.2123 -16.1646 -10.9271  -7.1285  -2.2507   2.4080   4.7414   5.5327

          k = 0.0677 0.5861 0.0000 (  4952 PWs)   bands (ev):

   -18.4083 -17.1122 -11.0245  -6.6004  -2.9137   2.3486   6.4539   6.6201

          k = 0.1354 0.2345 0.0000 (  5031 PWs)   bands (ev):

   -22.0996 -10.9989 -10.1302  -9.7497   0.6430   1.4153   2.2327   2.5713

          k = 0.1354 0.3126 0.0000 (  5014 PWs)   bands (ev):

   -21.4231 -12.3242 -10.5834  -9.3624   1.2321   1.5741   2.3522   3.1851

          k = 0.1354 0.3908 0.0000 (  5009 PWs)   bands (ev):

   -20.5677 -13.8145 -11.2163  -8.4187  -0.2685   2.7638   3.5436   3.9079

          k = 0.1354 0.4689 0.0000 (  4973 PWs)   bands (ev):

   -19.5550 -15.3137 -11.6347  -7.3751  -1.7325   3.6731   4.2243   4.9681

          k = 0.1354 0.5471 0.0000 (  4975 PWs)   bands (ev):

   -18.4926 -16.6365 -11.8445  -6.4922  -2.8428   3.5602   5.8874   6.5086

          k = 0.2030 0.3517 0.0000 (  5019 PWs)   bands (ev):

   -20.6618 -13.3190 -11.6444  -8.5129  -0.0384   2.6338   3.3990   4.2732

          k = 0.2030 0.4298 0.0000 (  4999 PWs)   bands (ev):

   -19.7330 -14.5232 -12.4117  -7.5137  -1.3756   3.9452   4.6665   5.4321

          k = 0.2030 0.5080 0.0000 (  4992 PWs)   bands (ev):

   -18.6800 -15.8272 -12.8284  -6.4809  -2.6295   5.2254   5.5223   5.9754

          k = 0.2030 0.5861 0.0000 (  4980 PWs)   bands (ev):

   -17.8865 -16.7181 -12.9589  -5.8976  -3.2901   5.1817   6.5611   7.0624

          k = 0.2707 0.4689 0.0000 (  5012 PWs)   bands (ev):

   -18.7541 -15.3107 -13.4090  -6.4897  -2.5166   5.3553   5.7662   7.0574

          k = 0.2707 0.5471 0.0000 (  5004 PWs)   bands (ev):

   -17.7240 -16.2655 -13.9103  -5.5090  -3.5508   6.1200   6.7703   7.0110

          k = 0.3384 0.5861 0.0000 (  5010 PWs)   bands (ev):

   -16.8487 -16.8487 -14.4005  -4.5153  -4.5153   5.9638   7.5972   7.5972

     the Fermi energy is    -4.5153 ev

!    total energy              =     -22.78276817 Ry
     estimated scf accuracy    <          9.9E-09 Ry
     smearing contrib. (-TS)   =      -0.00005015 Ry
     internal energy E=F+TS    =     -22.78271802 Ry

     The total energy is F=E-TS. E is the sum of the following terms:
     one-electron contribution =    -361.72803444 Ry
     hartree contribution      =     181.42089584 Ry
     xc contribution           =      -6.87127180 Ry
     ewald contribution        =     164.39569238 Ry

     convergence has been achieved in  10 iterations

     Forces acting on atoms (cartesian axes, Ry/au):

     atom    1 type  1   force =     0.00000000    0.00000000    0.00000000
     atom    2 type  1   force =     0.00000000    0.00000000    0.00000000

     Total force =     0.000000     Total SCF correction =     0.000000


     Computing stress (Cartesian axis) and pressure

          total   stress  (Ry/bohr**3)                   (kbar)     P=      -49.46
  -0.00045795   0.00000000  -0.00000000          -67.37        0.00       -0.00
   0.00000000  -0.00045795   0.00000000            0.00      -67.37        0.00
   0.00000000   0.00000000  -0.00009270            0.00        0.00      -13.64

     Energy error            =      1.3E-02
     Gradient error          =      0.0E+00
     Cell gradient error     =      4.6E-04


     number of scf cycles    =   2
     number of bfgs steps    =   1

     enthalpy old            =     -22.7695454406 Ry
     enthalpy new            =     -22.7827681688 Ry

     CASE: enthalpy_new < enthalpy_old

     new trust radius        =       0.0953952398 bohr
     new conv_thr            =            1.0E-10 Ry

     new unit-cell volume =    786.78105 a.u.^3 (   116.58892 Ang^3 )
     density =      0.34213 g/cm^3

CELL_PARAMETERS (alat=  4.89000000)
   0.968557169  -0.000000000   0.000000000
  -0.484278585   0.838795114   0.000000000
   0.000000000   0.000000000   8.282208589

ATOMIC_POSITIONS (crystal)
C             0.3333333333        0.6666666667        0.5000000000
C             0.6666666667        0.3333333333        0.5000000000



     Writing output data file ./work/LiC489.save/
     NEW-OLD atomic charge density approx. for the potential

     negative rho (up, down):  5.930E-06 0.000E+00
     extrapolated charge    7.72609, renormalised to    8.00000

     total cpu time spent up to now is        3.5 secs

     Self-consistent Calculation

     iteration #  1     ecut=    50.00 Ry     beta= 0.70
     Davidson diagonalization with overlap
     c_bands:  2 eigenvalues not converged
     c_bands:  1 eigenvalues not converged
     c_bands:  3 eigenvalues not converged
     c_bands:  2 eigenvalues not converged
     c_bands:  1 eigenvalues not converged
     c_bands:  1 eigenvalues not converged
     c_bands:  4 eigenvalues not converged
     c_bands:  2 eigenvalues not converged
     c_bands:  1 eigenvalues not converged
     c_bands:  1 eigenvalues not converged
     c_bands:  2 eigenvalues not converged
     c_bands:  3 eigenvalues not converged
     c_bands:  2 eigenvalues not converged
     c_bands:  1 eigenvalues not converged
     c_bands:  1 eigenvalues not converged
     c_bands:  2 eigenvalues not converged
     c_bands:  1 eigenvalues not converged
     c_bands:  2 eigenvalues not converged
     c_bands:  1 eigenvalues not converged
     ethr =  1.00E-06,  avg # of iterations = 18.8

     negative rho (up, down):  4.894E-07 0.000E+00

     total cpu time spent up to now is        4.0 secs

     total energy              =     -22.76202627 Ry
     estimated scf accuracy    <       0.01635195 Ry

     iteration #  2     ecut=    50.00 Ry     beta= 0.70
     Davidson diagonalization with overlap
     ethr =  2.04E-04,  avg # of iterations = 10.3

     negative rho (up, down):  1.020E-07 0.000E+00

     total cpu time spent up to now is        4.3 secs

     total energy              =     -22.79348530 Ry
     estimated scf accuracy    <       0.01479563 Ry

     iteration #  3     ecut=    50.00 Ry     beta= 0.70
     Davidson diagonalization with overlap
     ethr =  1.85E-04,  avg # of iterations =  1.0

     total cpu time spent up to now is        4.4 secs

     total energy              =     -22.79232323 Ry
     estimated scf accuracy    <       0.00321282 Ry

     iteration #  4     ecut=    50.00 Ry     beta= 0.70
     Davidson diagonalization with overlap
     ethr =  4.02E-05,  avg # of iterations =  2.7

     total cpu time spent up to now is        4.5 secs

     total energy              =     -22.79272129 Ry
     estimated scf accuracy    <       0.00006780 Ry

     iteration #  5     ecut=    50.00 Ry     beta= 0.70
     Davidson diagonalization with overlap
     c_bands:  1 eigenvalues not converged
     c_bands:  1 eigenvalues not converged
     ethr =  8.47E-07,  avg # of iterations =  6.6

     total cpu time spent up to now is        4.7 secs

     total energy              =     -22.79274424 Ry
     estimated scf accuracy    <       0.00000970 Ry

     iteration #  6     ecut=    50.00 Ry     beta= 0.70
     Davidson diagonalization with overlap
     ethr =  1.21E-07,  avg # of iterations =  1.4

     total cpu time spent up to now is        4.8 secs

     total energy              =     -22.79273267 Ry
     estimated scf accuracy    <       0.00002167 Ry

     iteration #  7     ecut=    50.00 Ry     beta= 0.70
     Davidson diagonalization with overlap
     c_bands:  1 eigenvalues not converged
     ethr =  1.21E-07,  avg # of iterations =  2.9

     total cpu time spent up to now is        5.0 secs

     total energy              =     -22.79273582 Ry
     estimated scf accuracy    <       0.00000138 Ry

     iteration #  8     ecut=    50.00 Ry     beta= 0.70
     Davidson diagonalization with overlap
     ethr =  1.73E-08,  avg # of iterations =  1.0

     total cpu time spent up to now is        5.1 secs

     total energy              =     -22.79273582 Ry
     estimated scf accuracy    <       0.00000081 Ry

     iteration #  9     ecut=    50.00 Ry     beta= 0.70
     Davidson diagonalization with overlap
     ethr =  1.01E-08,  avg # of iterations =  1.8

     total cpu time spent up to now is        5.2 secs

     total energy              =     -22.79273586 Ry
     estimated scf accuracy    <       0.00000004 Ry

     iteration # 10     ecut=    50.00 Ry     beta= 0.70
     Davidson diagonalization with overlap
     ethr =  4.42E-10,  avg # of iterations =  2.5

     total cpu time spent up to now is        5.3 secs

     total energy              =     -22.79273587 Ry
     estimated scf accuracy    <          8.9E-09 Ry

     iteration # 11     ecut=    50.00 Ry     beta= 0.70
     Davidson diagonalization with overlap
     ethr =  1.11E-10,  avg # of iterations =  1.1

     total cpu time spent up to now is        5.5 secs

     total energy              =     -22.79273587 Ry
     estimated scf accuracy    <          3.3E-09 Ry

     iteration # 12     ecut=    50.00 Ry     beta= 0.70
     Davidson diagonalization with overlap
     ethr =  4.12E-11,  avg # of iterations =  2.0

     total cpu time spent up to now is        5.6 secs

     total energy              =     -22.79273587 Ry
     estimated scf accuracy    <          1.1E-09 Ry

     iteration # 13     ecut=    50.00 Ry     beta= 0.70
     Davidson diagonalization with overlap
     ethr =  1.34E-11,  avg # of iterations =  1.0

     total cpu time spent up to now is        5.7 secs

     total energy              =     -22.79273587 Ry
     estimated scf accuracy    <          1.7E-10 Ry

     iteration # 14     ecut=    50.00 Ry     beta= 0.70
     Davidson diagonalization with overlap
     ethr =  2.13E-12,  avg # of iterations =  2.0

     total cpu time spent up to now is        5.8 secs

     End of self-consistent calculation

          k = 0.0000 0.0000 0.0000 (  5083 PWs)   bands (ev):

   -23.5321 -11.6831  -7.4829  -7.4829  -0.9684  -0.1984   0.5974   0.9506

          k = 0.0000 0.0795 0.0000 (  5097 PWs)   bands (ev):

   -23.4303 -11.5625  -7.9008  -7.6950  -0.8304  -0.0586   0.7383   1.0908

          k = 0.0000 0.1590 0.0000 (  5077 PWs)   bands (ev):

   -23.1256 -11.2027  -9.0029  -8.2298  -0.4163   0.3602   1.1609   1.5108

          k = 0.0000 0.2384 0.0000 (  5035 PWs)   bands (ev):

   -22.6202 -10.6106 -10.5110  -8.9014   0.2733   1.0555   1.8648   2.2081

          k = 0.0000 0.3179 0.0000 (  5020 PWs)   bands (ev):

   -21.9186 -12.1950  -9.8018  -9.5555   1.2358   1.9234   2.2215   2.8428

          k = 0.0000 0.3974 0.0000 (  5004 PWs)   bands (ev):

   -21.0287 -13.9069 -10.1011  -8.8078   0.3436   2.4520   2.8864   3.2965

          k = 0.0000 0.4769 0.0000 (  4986 PWs)   bands (ev):

   -19.9693 -15.5490 -10.4875  -7.7144  -1.3162   2.6393   3.9871   4.8094

          k = 0.0000 0.5564 0.0000 (  4928 PWs)   bands (ev):

   -18.8329 -16.9849 -10.6839  -6.8051  -2.5260   2.5296   5.7354   6.5707

          k = 0.0688 0.1192 0.0000 (  5083 PWs)   bands (ev):

   -23.2271 -11.3223  -8.6110  -8.1165  -0.5543   0.2207   1.0200   1.3709

          k = 0.0688 0.1987 0.0000 (  5051 PWs)   bands (ev):

   -22.8220 -10.8457  -9.8319  -8.8069  -0.0022   0.7783   1.5836   1.9303

          k = 0.0688 0.2782 0.0000 (  5024 PWs)   bands (ev):

   -22.2184 -11.3701 -10.1443  -9.5303   0.8246   1.6072   2.4281   2.7280

          k = 0.0688 0.3577 0.0000 (  5017 PWs)   bands (ev):

   -21.4224 -13.0375 -10.1630  -9.2385   1.1368   1.9222   2.7392   3.4324

          k = 0.0688 0.4371 0.0000 (  4993 PWs)   bands (ev):

   -20.4459 -14.7005 -10.6444  -8.1792  -0.5601   3.1391   3.3581   4.1133

          k = 0.0688 0.5166 0.0000 (  4973 PWs)   bands (ev):

   -19.3244 -16.2559 -10.9432  -7.1146  -2.0450   3.0280   4.9303   5.7442

          k = 0.0688 0.5961 0.0000 (  4952 PWs)   bands (ev):

   -18.4481 -17.2799 -11.0445  -6.5562  -2.7482   2.9719   6.7100   6.8717

          k = 0.1377 0.2384 0.0000 (  5031 PWs)   bands (ev):

   -22.3187 -10.9140 -10.2589  -9.7212   0.6876   1.4731   2.2881   2.6281

          k = 0.1377 0.3179 0.0000 (  5014 PWs)   bands (ev):

   -21.6206 -12.2709 -10.5895  -9.4571   1.6452   1.6506   2.4454   3.2735

          k = 0.1377 0.3974 0.0000 (  5009 PWs)   bands (ev):

   -20.7366 -13.8084 -11.2424  -8.4701   0.0604   2.8818   3.6796   4.4897

          k = 0.1377 0.4769 0.0000 (  4973 PWs)   bands (ev):

   -19.6862 -15.3613 -11.6731  -7.3762  -1.4855   4.2630   4.4502   5.1591

          k = 0.1377 0.5564 0.0000 (  4975 PWs)   bands (ev):

   -18.5636 -16.7527 -11.8890  -6.4459  -2.6601   4.2114   6.1187   6.7704

          k = 0.2065 0.3577 0.0000 (  5019 PWs)   bands (ev):

   -20.8342 -13.2743 -11.7035  -8.5690   0.3104   2.7469   3.5292   4.3994

          k = 0.2065 0.4371 0.0000 (  4999 PWs)   bands (ev):

   -19.8729 -14.5151 -12.4968  -7.5229  -1.0964   4.1048   4.8460   5.7976

          k = 0.2065 0.5166 0.0000 (  4992 PWs)   bands (ev):

   -18.7755 -15.8769 -12.9190  -6.4387  -2.4174   5.6780   5.9779   6.2132

          k = 0.2065 0.5961 0.0000 (  4980 PWs)   bands (ev):

   -17.9180 -16.8373 -13.0507  -5.8232  -3.1160   5.8743   6.8266   7.3656

          k = 0.2753 0.4769 0.0000 (  5012 PWs)   bands (ev):

   -18.8565 -15.3001 -13.5545  -6.4497  -2.2899   5.5683   5.9926   7.2868

          k = 0.2753 0.5564 0.0000 (  5004 PWs)   bands (ev):

   -17.7749 -16.2969 -14.0765  -5.4198  -3.3747   6.3475   7.1640   7.6264

          k = 0.3442 0.5961 0.0000 (  5010 PWs)   bands (ev):

   -16.8635 -16.8635 -14.6240  -4.3802  -4.3802   6.1732   8.1383   8.1383

     the Fermi energy is    -4.3802 ev

!    total energy              =     -22.79273587 Ry
     estimated scf accuracy    <          3.5E-13 Ry
     smearing contrib. (-TS)   =      -0.00005015 Ry
     internal energy E=F+TS    =     -22.79268572 Ry

     The total energy is F=E-TS. E is the sum of the following terms:
     one-electron contribution =    -374.26898026 Ry
     hartree contribution      =     187.72198781 Ry
     xc contribution           =      -6.94120244 Ry
     ewald contribution        =     170.69550916 Ry

     convergence has been achieved in  14 iterations

     Forces acting on atoms (cartesian axes, Ry/au):

     atom    1 type  1   force =     0.00000000    0.00000000    0.00000000
     atom    2 type  1   force =    -0.00000000   -0.00000000    0.00000000

     Total force =     0.000000     Total SCF correction =     0.000000


     Computing stress (Cartesian axis) and pressure

          total   stress  (Ry/bohr**3)                   (kbar)     P=      -31.47
  -0.00027520   0.00000000  -0.00000000          -40.48        0.00       -0.00
   0.00000000  -0.00027520   0.00000000            0.00      -40.48        0.00
  -0.00000000   0.00000000  -0.00009135           -0.00        0.00      -13.44

     Energy error            =      1.0E-02
     Gradient error          =      1.8E-26
     Cell gradient error     =      2.8E-04


     number of scf cycles    =   3
     number of bfgs steps    =   2

     enthalpy old            =     -22.7827681688 Ry
     enthalpy new            =     -22.7927358730 Ry

     CASE: enthalpy_new < enthalpy_old

     new trust radius        =       0.1377913766 bohr
     new conv_thr            =            1.0E-10 Ry

     new unit-cell volume =    748.60576 a.u.^3 (   110.93193 Ang^3 )
     density =      0.35958 g/cm^3

CELL_PARAMETERS (alat=  4.89000000)
   0.944767393  -0.000000000   0.000000000
  -0.472383696   0.818192563   0.000000000
   0.000000000   0.000000000   8.282208589

ATOMIC_POSITIONS (crystal)
C             0.3333333333        0.6666666667        0.5000000000
C             0.6666666667        0.3333333333        0.5000000000



     Writing output data file ./work/LiC489.save/
     NEW-OLD atomic charge density approx. for the potential

     negative rho (up, down):  1.700E-05 0.000E+00
     extrapolated charge    7.59275, renormalised to    8.00000

     total cpu time spent up to now is        5.9 secs

     Self-consistent Calculation

     iteration #  1     ecut=    50.00 Ry     beta= 0.70
     Davidson diagonalization with overlap
     c_bands:  1 eigenvalues not converged
     c_bands:  1 eigenvalues not converged
     c_bands:  2 eigenvalues not converged
     c_bands:  2 eigenvalues not converged
     c_bands:  1 eigenvalues not converged
     c_bands:  1 eigenvalues not converged
     c_bands:  1 eigenvalues not converged
     c_bands:  1 eigenvalues not converged
     c_bands:  3 eigenvalues not converged
     c_bands:  3 eigenvalues not converged
     c_bands:  2 eigenvalues not converged
     c_bands:  1 eigenvalues not converged
     c_bands:  1 eigenvalues not converged
     c_bands:  1 eigenvalues not converged
     c_bands:  4 eigenvalues not converged
     c_bands:  3 eigenvalues not converged
     c_bands:  2 eigenvalues not converged
     c_bands:  1 eigenvalues not converged
     c_bands:  1 eigenvalues not converged
     c_bands:  3 eigenvalues not converged
     c_bands:  2 eigenvalues not converged
     c_bands:  1 eigenvalues not converged
     c_bands:  1 eigenvalues not converged
     c_bands:  2 eigenvalues not converged
     c_bands:  1 eigenvalues not converged
     ethr =  1.00E-06,  avg # of iterations = 19.7

     negative rho (up, down):  3.228E-06 0.000E+00

     total cpu time spent up to now is        6.5 secs

     total energy              =     -22.73485314 Ry
     estimated scf accuracy    <       0.03300713 Ry

     iteration #  2     ecut=    50.00 Ry     beta= 0.70
     Davidson diagonalization with overlap
     ethr =  4.13E-04,  avg # of iterations = 10.3

     negative rho (up, down):  1.270E-06 0.000E+00

     total cpu time spent up to now is        6.7 secs

     total energy              =     -22.79875653 Ry
     estimated scf accuracy    <       0.03034494 Ry

     iteration #  3     ecut=    50.00 Ry     beta= 0.70
     Davidson diagonalization with overlap
     ethr =  3.79E-04,  avg # of iterations =  1.1

     negative rho (up, down):  9.659E-08 0.000E+00

     total cpu time spent up to now is        6.9 secs

     total energy              =     -22.79688650 Ry
     estimated scf accuracy    <       0.00648745 Ry

     iteration #  4     ecut=    50.00 Ry     beta= 0.70
     Davidson diagonalization with overlap
     ethr =  8.11E-05,  avg # of iterations =  2.6

     total cpu time spent up to now is        7.0 secs

     total energy              =     -22.79725157 Ry
     estimated scf accuracy    <       0.00048851 Ry

     iteration #  5     ecut=    50.00 Ry     beta= 0.70
     Davidson diagonalization with overlap
     ethr =  6.11E-06,  avg # of iterations =  7.0

     total cpu time spent up to now is        7.2 secs

     total energy              =     -22.79735497 Ry
     estimated scf accuracy    <       0.00001001 Ry

     iteration #  6     ecut=    50.00 Ry     beta= 0.70
     Davidson diagonalization with overlap
     ethr =  1.25E-07,  avg # of iterations =  2.4

     total cpu time spent up to now is        7.3 secs

     total energy              =     -22.79733190 Ry
     estimated scf accuracy    <       0.00004258 Ry

     iteration #  7     ecut=    50.00 Ry     beta= 0.70
     Davidson diagonalization with overlap
     ethr =  1.25E-07,  avg # of iterations =  2.2

     total cpu time spent up to now is        7.5 secs

     total energy              =     -22.79733994 Ry
     estimated scf accuracy    <       0.00000043 Ry

     iteration #  8     ecut=    50.00 Ry     beta= 0.70
     Davidson diagonalization with overlap
     ethr =  5.42E-09,  avg # of iterations =  2.2

     total cpu time spent up to now is        7.6 secs

     total energy              =     -22.79733990 Ry
     estimated scf accuracy    <       0.00000027 Ry

     iteration #  9     ecut=    50.00 Ry     beta= 0.70
     Davidson diagonalization with overlap
     ethr =  3.34E-09,  avg # of iterations =  2.0

     total cpu time spent up to now is        7.7 secs

     total energy              =     -22.79733993 Ry
     estimated scf accuracy    <          1.5E-09 Ry

     iteration # 10     ecut=    50.00 Ry     beta= 0.70
     Davidson diagonalization with overlap
     ethr =  1.93E-11,  avg # of iterations =  3.7

     total cpu time spent up to now is        7.9 secs

     total energy              =     -22.79733993 Ry
     estimated scf accuracy    <          4.0E-10 Ry

     iteration # 11     ecut=    50.00 Ry     beta= 0.70
     Davidson diagonalization with overlap
     ethr =  5.01E-12,  avg # of iterations =  1.4

     total cpu time spent up to now is        8.0 secs

     total energy              =     -22.79733993 Ry
     estimated scf accuracy    <          6.0E-10 Ry

     iteration # 12     ecut=    50.00 Ry     beta= 0.70
     Davidson diagonalization with overlap
     ethr =  5.01E-12,  avg # of iterations =  1.9

     total cpu time spent up to now is        8.1 secs

     End of self-consistent calculation

          k = 0.0000 0.0000 0.0000 (  5083 PWs)   bands (ev):

   -23.9109 -11.9689  -7.2550  -7.2550  -0.9822  -0.1978   0.5964   0.9495

          k = 0.0000 0.0815 0.0000 (  5097 PWs)   bands (ev):

   -23.8045 -11.8408  -7.6832  -7.4842  -0.8373  -0.0507   0.7444   1.0969

          k = 0.0000 0.1630 0.0000 (  5077 PWs)   bands (ev):

   -23.4861 -11.4583  -8.8181  -8.0609  -0.4025   0.3901   1.1885   1.5390

          k = 0.0000 0.2444 0.0000 (  5035 PWs)   bands (ev):

   -22.9579 -10.8286 -10.3789  -8.7820   0.3218   1.1224   1.9285   2.2735

          k = 0.0000 0.3259 0.0000 (  5020 PWs)   bands (ev):

   -22.2240 -12.1288  -9.9673  -9.4822   1.3332   2.1139   2.7960   2.9626

          k = 0.0000 0.4074 0.0000 (  5004 PWs)   bands (ev):

   -21.2915 -13.9138 -10.0648  -8.9066   0.8493   2.6238   3.4865   3.7827

          k = 0.0000 0.4889 0.0000 (  4986 PWs)   bands (ev):

   -20.1757 -15.6348 -10.4767  -7.7351  -0.9467   3.5580   4.2435   5.0797

          k = 0.0000 0.5704 0.0000 (  4928 PWs)   bands (ev):

   -18.9452 -17.1771 -10.6865  -6.7529  -2.2607   3.4731   6.0691   6.9420

          k = 0.0706 0.1222 0.0000 (  5083 PWs)   bands (ev):

   -23.5921 -11.5855  -8.4107  -7.9395  -0.5474   0.2433   1.0405   1.3917

          k = 0.0706 0.2037 0.0000 (  5051 PWs)   bands (ev):

   -23.1688 -11.0788  -9.6684  -8.6807   0.0325   0.8302   1.6328   1.9805

          k = 0.0706 0.2852 0.0000 (  5024 PWs)   bands (ev):

   -22.5377 -11.2647 -10.3323  -9.4519   0.9011   1.7047   2.5208   2.8546

          k = 0.0706 0.3667 0.0000 (  5017 PWs)   bands (ev):

   -21.7045 -13.0018 -10.1243  -9.3668   1.7117   2.0551   2.9038   3.7005

          k = 0.0706 0.4481 0.0000 (  4993 PWs)   bands (ev):

   -20.6793 -14.7407 -10.6353  -8.2344  -0.1213   3.4777   4.1612   4.3461

          k = 0.0706 0.5296 0.0000 (  4973 PWs)   bands (ev):

   -19.4896 -16.3821 -10.9523  -7.0900  -1.7304   3.9781   5.2252   6.0685

          k = 0.0706 0.6111 0.0000 (  4952 PWs)   bands (ev):

   -18.4911 -17.5345 -11.0598  -6.4840  -2.4964   3.9314   7.1040   7.2594

          k = 0.1411 0.2444 0.0000 (  5031 PWs)   bands (ev):

   -22.6427 -10.7734 -10.4543  -9.6624   0.7573   1.5619   2.3734   2.7153

          k = 0.1411 0.3259 0.0000 (  5014 PWs)   bands (ev):

   -21.9123 -12.1801 -10.5824  -9.6001   1.7694   2.2767   2.5953   3.4096

          k = 0.1411 0.4074 0.0000 (  5009 PWs)   bands (ev):

   -20.9857 -13.7906 -11.2644  -8.5467   0.5678   3.0642   3.8887   4.7380

          k = 0.1411 0.4889 0.0000 (  4973 PWs)   bands (ev):

   -19.8793 -15.4244 -11.7136  -7.3750  -1.1053   4.6250   5.3357   5.4523

          k = 0.1411 0.5704 0.0000 (  4975 PWs)   bands (ev):

   -18.6655 -16.9200 -11.9387  -6.3710  -2.3800   5.2081   6.4765   7.1729

          k = 0.2117 0.3667 0.0000 (  5019 PWs)   bands (ev):

   -21.0884 -13.1950 -11.7785  -8.6527   0.8502   2.9222   3.7291   4.5934

          k = 0.2117 0.4481 0.0000 (  4999 PWs)   bands (ev):

   -20.0786 -14.4941 -12.6075  -7.5344  -0.6643   4.3511   5.1218   6.3111

          k = 0.2117 0.5296 0.0000 (  4992 PWs)   bands (ev):

   -18.9148 -15.9461 -13.0351  -6.3705  -2.0896   6.0325   6.5804   7.0034

          k = 0.2117 0.6111 0.0000 (  4980 PWs)   bands (ev):

   -17.9494 -17.0235 -13.1678  -5.7047  -2.8475   6.9257   7.2396   7.8220

          k = 0.2823 0.4889 0.0000 (  5012 PWs)   bands (ev):

   -19.0060 -15.2711 -13.7610  -6.3852  -1.9379   5.8954   6.3422   7.6402

          k = 0.2823 0.5704 0.0000 (  5004 PWs)   bands (ev):

   -17.8442 -16.3396 -14.3083  -5.2790  -3.1007   6.7003   7.6220   9.0972

          k = 0.3528 0.6111 0.0000 (  5010 PWs)   bands (ev):

   -16.8711 -16.8711 -14.9592  -4.1688  -4.1688   6.4975   8.8767   8.8767

     the Fermi energy is    -4.1688 ev

!    total energy              =     -22.79733993 Ry
     estimated scf accuracy    <          7.6E-11 Ry
     smearing contrib. (-TS)   =      -0.00005015 Ry
     internal energy E=F+TS    =     -22.79728978 Ry

     The total energy is F=E-TS. E is the sum of the following terms:
     one-electron contribution =    -393.58091510 Ry
     hartree contribution      =     197.42701553 Ry
     xc contribution           =      -7.04741473 Ry
     ewald contribution        =     180.40402452 Ry

     convergence has been achieved in  12 iterations

     Forces acting on atoms (cartesian axes, Ry/au):

     atom    1 type  1   force =     0.00000000    0.00000000    0.00000000
     atom    2 type  1   force =     0.00000000    0.00000000    0.00000000

     Total force =     0.000000     Total SCF correction =     0.000000


     Computing stress (Cartesian axis) and pressure

          total   stress  (Ry/bohr**3)                   (kbar)     P=        0.30
   0.00004790  -0.00000000   0.00000000            7.05       -0.00        0.00
  -0.00000000   0.00004790   0.00000000           -0.00        7.05        0.00
   0.00000000   0.00000000  -0.00008960            0.00        0.00      -13.18

     Energy error            =      4.6E-03
     Gradient error          =      0.0E+00
     Cell gradient error     =      4.8E-05


     number of scf cycles    =   4
     number of bfgs steps    =   3

     enthalpy old            =     -22.7927358730 Ry
     enthalpy new            =     -22.7973399328 Ry

     CASE: enthalpy_new < enthalpy_old

     new trust radius        =       0.0199996488 bohr
     new conv_thr            =            1.0E-10 Ry

     new unit-cell volume =    754.08780 a.u.^3 (   111.74428 Ang^3 )
     density =      0.35696 g/cm^3

CELL_PARAMETERS (alat=  4.89000000)
   0.948220346  -0.000000000   0.000000000
  -0.474110173   0.821182908   0.000000000
   0.000000000   0.000000000   8.282208589

ATOMIC_POSITIONS (crystal)
C             0.3333333333        0.6666666667        0.5000000000
C             0.6666666667        0.3333333333        0.5000000000



     Writing output data file ./work/LiC489.save/
     NEW-OLD atomic charge density approx. for the potential

     negative rho (up, down):  2.321E-06 0.000E+00
     extrapolated charge    8.05806, renormalised to    8.00000

     total cpu time spent up to now is        8.2 secs

     Self-consistent Calculation

     iteration #  1     ecut=    50.00 Ry     beta= 0.70
     Davidson diagonalization with overlap
     c_bands:  1 eigenvalues not converged
     c_bands:  1 eigenvalues not converged
     ethr =  1.00E-06,  avg # of iterations = 15.0

     total cpu time spent up to now is        8.6 secs

     total energy              =     -22.51518867 Ry
     estimated scf accuracy    <       0.13923034 Ry

     iteration #  2     ecut=    50.00 Ry     beta= 0.70
     Davidson diagonalization with overlap
     ethr =  1.74E-03,  avg # of iterations =  8.1

     total cpu time spent up to now is        8.8 secs

     total energy              =     -22.83544447 Ry
     estimated scf accuracy    <       0.08361890 Ry

     iteration #  3     ecut=    50.00 Ry     beta= 0.70
     Davidson diagonalization with overlap
     ethr =  1.05E-03,  avg # of iterations =  2.4

     total cpu time spent up to now is        8.9 secs

     total energy              =     -22.81515533 Ry
     estimated scf accuracy    <       0.02565044 Ry

     iteration #  4     ecut=    50.00 Ry     beta= 0.70
     Davidson diagonalization with overlap
     ethr =  3.21E-04,  avg # of iterations =  4.0

     total cpu time spent up to now is        9.1 secs

     total energy              =     -22.80363689 Ry
     estimated scf accuracy    <       0.01166084 Ry

     iteration #  5     ecut=    50.00 Ry     beta= 0.70
     Davidson diagonalization with overlap
     ethr =  1.46E-04,  avg # of iterations =  4.1

     total cpu time spent up to now is        9.2 secs

     total energy              =     -22.80206713 Ry
     estimated scf accuracy    <       0.00427902 Ry

     iteration #  6     ecut=    50.00 Ry     beta= 0.70
     Davidson diagonalization with overlap
     ethr =  5.35E-05,  avg # of iterations =  2.5

     total cpu time spent up to now is        9.3 secs

     total energy              =     -22.79756812 Ry
     estimated scf accuracy    <       0.00319131 Ry

     iteration #  7     ecut=    50.00 Ry     beta= 0.70
     Davidson diagonalization with overlap
     ethr =  3.99E-05,  avg # of iterations =  8.1

     total cpu time spent up to now is        9.6 secs

     total energy              =     -22.79767336 Ry
     estimated scf accuracy    <       0.00019701 Ry

     iteration #  8     ecut=    50.00 Ry     beta= 0.70
     Davidson diagonalization with overlap
     c_bands:  1 eigenvalues not converged
     ethr =  2.46E-06,  avg # of iterations =  5.5

     total cpu time spent up to now is        9.7 secs

     total energy              =     -22.79744794 Ry
     estimated scf accuracy    <       0.00020419 Ry

     iteration #  9     ecut=    50.00 Ry     beta= 0.70
     Davidson diagonalization with overlap
     ethr =  2.46E-06,  avg # of iterations =  7.6

     negative rho (up, down):  1.348E-04 0.000E+00

     total cpu time spent up to now is        9.9 secs

     total energy              =     -22.79746077 Ry
     estimated scf accuracy    <       0.00000087 Ry

     iteration # 10     ecut=    50.00 Ry     beta= 0.70
     Davidson diagonalization with overlap
     ethr =  1.09E-08,  avg # of iterations =  2.1

     total cpu time spent up to now is       10.1 secs

     total energy              =     -22.79745999 Ry
     estimated scf accuracy    <       0.00000011 Ry

     iteration # 11     ecut=    50.00 Ry     beta= 0.70
     Davidson diagonalization with overlap
     ethr =  1.37E-09,  avg # of iterations =  4.9

     total cpu time spent up to now is       10.2 secs

     total energy              =     -22.79746000 Ry
     estimated scf accuracy    <          8.5E-09 Ry

     iteration # 12     ecut=    50.00 Ry     beta= 0.70
     Davidson diagonalization with overlap
     ethr =  1.07E-10,  avg # of iterations =  2.4

     total cpu time spent up to now is       10.3 secs

     total energy              =     -22.79746000 Ry
     estimated scf accuracy    <          6.6E-09 Ry

     iteration # 13     ecut=    50.00 Ry     beta= 0.70
     Davidson diagonalization with overlap
     ethr =  8.24E-11,  avg # of iterations =  1.0

     total cpu time spent up to now is       10.5 secs

     total energy              =     -22.79746000 Ry
     estimated scf accuracy    <          3.3E-09 Ry

     iteration # 14     ecut=    50.00 Ry     beta= 0.70
     Davidson diagonalization with overlap
     ethr =  4.14E-11,  avg # of iterations =  1.0

     total cpu time spent up to now is       10.6 secs

     total energy              =     -22.79746000 Ry
     estimated scf accuracy    <          1.7E-09 Ry

     iteration # 15     ecut=    50.00 Ry     beta= 0.70
     Davidson diagonalization with overlap
     ethr =  2.09E-11,  avg # of iterations =  1.3

     total cpu time spent up to now is       10.7 secs

     total energy              =     -22.79746000 Ry
     estimated scf accuracy    <          1.9E-09 Ry

     iteration # 16     ecut=    50.00 Ry     beta= 0.70
     Davidson diagonalization with overlap
     ethr =  2.09E-11,  avg # of iterations =  1.0

     total cpu time spent up to now is       10.8 secs

     total energy              =     -22.79746000 Ry
     estimated scf accuracy    <          1.9E-09 Ry

     iteration # 17     ecut=    50.00 Ry     beta= 0.70
     Davidson diagonalization with overlap
     ethr =  2.09E-11,  avg # of iterations =  2.0

     total cpu time spent up to now is       10.9 secs

     End of self-consistent calculation

          k = 0.0000 0.0000 0.0000 (  5083 PWs)   bands (ev):

   -23.8552 -11.9263  -7.2903  -7.2903  -0.9802  -0.1978   0.5965   0.9497

          k = 0.0000 0.0812 0.0000 (  5097 PWs)   bands (ev):

   -23.7495 -11.7992  -7.7168  -7.5169  -0.8363  -0.0518   0.7434   1.0960

          k = 0.0000 0.1624 0.0000 (  5077 PWs)   bands (ev):

   -23.4331 -11.4201  -8.8466  -8.0873  -0.4046   0.3857   1.1844   1.5348

          k = 0.0000 0.2436 0.0000 (  5035 PWs)   bands (ev):

   -22.9082 -10.7960 -10.3994  -8.8009   0.3144   1.1124   1.9190   2.2637

          k = 0.0000 0.3247 0.0000 (  5020 PWs)   bands (ev):

   -22.1791 -12.1394  -9.9426  -9.4942   1.3186   2.0923   2.7052   2.9452

          k = 0.0000 0.4059 0.0000 (  5004 PWs)   bands (ev):

   -21.2529 -13.9136 -10.0713  -8.8919   0.7737   2.5990   3.4579   3.6491

          k = 0.0000 0.4871 0.0000 (  4986 PWs)   bands (ev):

   -20.1453 -15.6229 -10.4793  -7.7321  -1.0018   3.4225   4.2030   5.0392

          k = 0.0000 0.5683 0.0000 (  4928 PWs)   bands (ev):

   -18.9287 -17.1495 -10.6871  -6.7609  -2.3002   3.3318   6.0190   6.8865

          k = 0.0703 0.1218 0.0000 (  5083 PWs)   bands (ev):

   -23.5384 -11.5462  -8.4416  -7.9671  -0.5485   0.2399   1.0374   1.3886

          k = 0.0703 0.2030 0.0000 (  5051 PWs)   bands (ev):

   -23.1178 -11.0440  -9.6936  -8.7006   0.0273   0.8225   1.6254   1.9730

          k = 0.0703 0.2841 0.0000 (  5024 PWs)   bands (ev):

   -22.4908 -11.2811 -10.3042  -9.4647   0.8896   1.6902   2.5069   2.8395

          k = 0.0703 0.3653 0.0000 (  5017 PWs)   bands (ev):

   -21.6631 -13.0078 -10.1312  -9.3477   1.6260   2.0351   2.8788   3.6768

          k = 0.0703 0.4465 0.0000 (  4993 PWs)   bands (ev):

   -20.6450 -14.7354 -10.6377  -8.2263  -0.1869   3.4443   4.0240   4.3112

          k = 0.0703 0.5277 0.0000 (  4973 PWs)   bands (ev):

   -19.4652 -16.3642 -10.9520  -7.0938  -1.7774   3.8363   5.1806   6.0200

          k = 0.0703 0.6089 0.0000 (  4952 PWs)   bands (ev):

   -18.4859 -17.4965 -11.0585  -6.4951  -2.5339   3.7876   7.0449   7.2013

          k = 0.1406 0.2436 0.0000 (  5031 PWs)   bands (ev):

   -22.5951 -10.7952 -10.4251  -9.6722   0.7467   1.5486   2.3606   2.7021

          k = 0.1406 0.3247 0.0000 (  5014 PWs)   bands (ev):

   -21.8694 -12.1943 -10.5846  -9.5788   1.7515   2.1835   2.5714   3.3892

          k = 0.1406 0.4059 0.0000 (  5009 PWs)   bands (ev):

   -20.9491 -13.7938 -11.2624  -8.5353   0.4917   3.0368   3.8574   4.7071

          k = 0.1406 0.4871 0.0000 (  4973 PWs)   bands (ev):

   -19.8509 -15.4157 -11.7088  -7.3753  -1.1622   4.5838   5.1906   5.4084

          k = 0.1406 0.5683 0.0000 (  4975 PWs)   bands (ev):

   -18.6506 -16.8958 -11.9325  -6.3825  -2.4218   5.0593   6.4227   7.1127

          k = 0.2109 0.3653 0.0000 (  5019 PWs)   bands (ev):

   -21.0511 -13.2076 -11.7683  -8.6403   0.7691   2.8958   3.6992   4.5643

          k = 0.2109 0.4465 0.0000 (  4999 PWs)   bands (ev):

   -20.0484 -14.4978 -12.5924  -7.5328  -0.7291   4.3142   5.0805   6.0289

          k = 0.2109 0.5277 0.0000 (  4992 PWs)   bands (ev):

   -18.8943 -15.9363 -13.0194  -6.3809  -2.1387   5.9816   6.5253   6.8490

          k = 0.2109 0.6089 0.0000 (  4980 PWs)   bands (ev):

   -17.9459 -16.9953 -13.1520  -5.7227  -2.8877   6.7694   7.7542   7.9784

          k = 0.2812 0.4871 0.0000 (  5012 PWs)   bands (ev):

   -18.9840 -15.2763 -13.7313  -6.3950  -1.9908   5.8464   6.2897   7.5872

          k = 0.2812 0.5683 0.0000 (  5004 PWs)   bands (ev):

   -17.8343 -16.3335 -14.2755  -5.3003  -3.1419   6.6472   7.5554   8.5086

          k = 0.3515 0.6089 0.0000 (  5010 PWs)   bands (ev):

   -16.8710 -16.8710 -14.9096  -4.2006  -4.2006   6.4487   8.7721   8.7721

     the Fermi energy is    -4.2006 ev

!    total energy              =     -22.79746000 Ry
     estimated scf accuracy    <          4.0E-12 Ry
     smearing contrib. (-TS)   =      -0.00005015 Ry
     internal energy E=F+TS    =     -22.79740985 Ry

     The total energy is F=E-TS. E is the sum of the following terms:
     one-electron contribution =    -390.68545530 Ry
     hartree contribution      =     195.97175999 Ry
     xc contribution           =      -7.03159925 Ry
     ewald contribution        =     178.94788471 Ry

     convergence has been achieved in  17 iterations

     Forces acting on atoms (cartesian axes, Ry/au):

     atom    1 type  1   force =     0.00000000    0.00000000    0.00000000
     atom    2 type  1   force =    -0.00000000   -0.00000000    0.00000000

     Total force =     0.000000     Total SCF correction =     0.000000


     Computing stress (Cartesian axis) and pressure

          total   stress  (Ry/bohr**3)                   (kbar)     P=       -4.78
  -0.00000378   0.00000000   0.00000000           -0.56        0.00        0.00
   0.00000000  -0.00000378   0.00000000            0.00       -0.56        0.00
   0.00000000   0.00000000  -0.00008989            0.00        0.00      -13.22

     Energy error            =      1.2E-04
     Gradient error          =      1.8E-26
     Cell gradient error     =      3.8E-06


     number of scf cycles    =   5
     number of bfgs steps    =   4

     enthalpy old            =     -22.7973399328 Ry
     enthalpy new            =     -22.7974600036 Ry

     CASE: enthalpy_new < enthalpy_old

     new trust radius        =       0.0014675131 bohr
     new conv_thr            =            1.0E-10 Ry

     new unit-cell volume =    753.68486 a.u.^3 (   111.68457 Ang^3 )
     density =      0.35715 g/cm^3

CELL_PARAMETERS (alat=  4.89000000)
   0.947966979  -0.000000000   0.000000000
  -0.473983489   0.820963486   0.000000000
   0.000000000   0.000000000   8.282208589

ATOMIC_POSITIONS (crystal)
C             0.3333333333        0.6666666667        0.5000000000
C             0.6666666667        0.3333333333        0.5000000000



     Writing output data file ./work/LiC489.save/
     NEW-OLD atomic charge density approx. for the potential
     extrapolated charge    7.99573, renormalised to    8.00000

     total cpu time spent up to now is       11.0 secs

     Self-consistent Calculation

     iteration #  1     ecut=    50.00 Ry     beta= 0.70
     Davidson diagonalization with overlap
     ethr =  1.00E-06,  avg # of iterations =  5.5

     Threshold (ethr) on eigenvalues was too large:
     Diagonalizing with lowered threshold

     Davidson diagonalization with overlap
     ethr =  6.70E-08,  avg # of iterations =  1.0

     total cpu time spent up to now is       11.3 secs

     total energy              =     -22.79744998 Ry
     estimated scf accuracy    <       0.00000554 Ry

     iteration #  2     ecut=    50.00 Ry     beta= 0.70
     Davidson diagonalization with overlap
     ethr =  6.92E-08,  avg # of iterations =  5.7

     total cpu time spent up to now is       11.5 secs

     total energy              =     -22.79746110 Ry
     estimated scf accuracy    <       0.00000518 Ry

     iteration #  3     ecut=    50.00 Ry     beta= 0.70
     Davidson diagonalization with overlap
     ethr =  6.47E-08,  avg # of iterations =  1.0

     total cpu time spent up to now is       11.6 secs

     total energy              =     -22.79746077 Ry
     estimated scf accuracy    <       0.00000120 Ry

     iteration #  4     ecut=    50.00 Ry     beta= 0.70
     Davidson diagonalization with overlap
     ethr =  1.50E-08,  avg # of iterations =  1.9

     total cpu time spent up to now is       11.7 secs

     total energy              =     -22.79746086 Ry
     estimated scf accuracy    <       0.00000018 Ry

     iteration #  5     ecut=    50.00 Ry     beta= 0.70
     Davidson diagonalization with overlap
     ethr =  2.25E-09,  avg # of iterations =  1.0

     total cpu time spent up to now is       11.8 secs

     total energy              =     -22.79746081 Ry
     estimated scf accuracy    <       0.00000019 Ry

     iteration #  6     ecut=    50.00 Ry     beta= 0.70
     Davidson diagonalization with overlap
     ethr =  2.25E-09,  avg # of iterations =  1.0

     total cpu time spent up to now is       11.9 secs

     total energy              =     -22.79746076 Ry
     estimated scf accuracy    <       0.00000009 Ry

     iteration #  7     ecut=    50.00 Ry     beta= 0.70
     Davidson diagonalization with overlap
     ethr =  1.16E-09,  avg # of iterations =  2.0

     total cpu time spent up to now is       12.0 secs

     total energy              =     -22.79746077 Ry
     estimated scf accuracy    <          7.4E-10 Ry

     iteration #  8     ecut=    50.00 Ry     beta= 0.70
     Davidson diagonalization with overlap
     ethr =  9.22E-12,  avg # of iterations =  2.7

     total cpu time spent up to now is       12.2 secs

     End of self-consistent calculation

          k = 0.0000 0.0000 0.0000 (  5083 PWs)   bands (ev):

   -23.8592 -11.9293  -7.2876  -7.2876  -0.9803  -0.1978   0.5965   0.9496

          k = 0.0000 0.0812 0.0000 (  5097 PWs)   bands (ev):

   -23.7534 -11.8022  -7.7143  -7.5144  -0.8364  -0.0517   0.7435   1.0961

          k = 0.0000 0.1624 0.0000 (  5077 PWs)   bands (ev):

   -23.4369 -11.4229  -8.8444  -8.0853  -0.4045   0.3860   1.1846   1.5351

          k = 0.0000 0.2436 0.0000 (  5035 PWs)   bands (ev):

   -22.9118 -10.7984 -10.3978  -8.7994   0.3150   1.1131   1.9197   2.2644

          k = 0.0000 0.3248 0.0000 (  5020 PWs)   bands (ev):

   -22.1823 -12.1386  -9.9444  -9.4932   1.3196   2.0939   2.7117   2.9466

          k = 0.0000 0.4060 0.0000 (  5004 PWs)   bands (ev):

   -21.2557 -13.9135 -10.0707  -8.8930   0.7793   2.6009   3.4600   3.6590

          k = 0.0000 0.4872 0.0000 (  4986 PWs)   bands (ev):

   -20.1475 -15.6237 -10.4790  -7.7323  -0.9978   3.4325   4.2059   5.0422

          k = 0.0000 0.5684 0.0000 (  4928 PWs)   bands (ev):

   -18.9298 -17.1515 -10.6870  -6.7603  -2.2973   3.3421   6.0227   6.8905

          k = 0.0703 0.1218 0.0000 (  5083 PWs)   bands (ev):

   -23.5423 -11.5490  -8.4393  -7.9651  -0.5484   0.2402   1.0376   1.3889

          k = 0.0703 0.2030 0.0000 (  5051 PWs)   bands (ev):

   -23.1215 -11.0465  -9.6917  -8.6991   0.0277   0.8230   1.6259   1.9736

          k = 0.0703 0.2842 0.0000 (  5024 PWs)   bands (ev):

   -22.4942 -11.2799 -10.3062  -9.4637   0.8904   1.6913   2.5079   2.8406

          k = 0.0703 0.3654 0.0000 (  5017 PWs)   bands (ev):

   -21.6660 -13.0073 -10.1306  -9.3490   1.6323   2.0366   2.8806   3.6785

          k = 0.0703 0.4466 0.0000 (  4993 PWs)   bands (ev):

   -20.6475 -14.7358 -10.6375  -8.2268  -0.1821   3.4468   4.0341   4.3138

          k = 0.0703 0.5278 0.0000 (  4973 PWs)   bands (ev):

   -19.4670 -16.3655 -10.9520  -7.0935  -1.7739   3.8467   5.1838   6.0236

          k = 0.0703 0.6090 0.0000 (  4952 PWs)   bands (ev):

   -18.4862 -17.4992 -11.0586  -6.4942  -2.5311   3.7982   7.0493   7.2056

          k = 0.1407 0.2436 0.0000 (  5031 PWs)   bands (ev):

   -22.5985 -10.7936 -10.4272  -9.6714   0.7475   1.5496   2.3615   2.7030

          k = 0.1407 0.3248 0.0000 (  5014 PWs)   bands (ev):

   -21.8725 -12.1932 -10.5844  -9.5803   1.7528   2.1904   2.5731   3.3906

          k = 0.1407 0.4060 0.0000 (  5009 PWs)   bands (ev):

   -20.9517 -13.7935 -11.2625  -8.5361   0.4973   3.0388   3.8597   4.7093

          k = 0.1407 0.4872 0.0000 (  4973 PWs)   bands (ev):

   -19.8529 -15.4162 -11.7091  -7.3752  -1.1580   4.5869   5.2013   5.4116

          k = 0.1407 0.5684 0.0000 (  4975 PWs)   bands (ev):

   -18.6516 -16.8975 -11.9329  -6.3816  -2.4187   5.0703   6.4266   7.1171

          k = 0.2110 0.3654 0.0000 (  5019 PWs)   bands (ev):

   -21.0538 -13.2066 -11.7690  -8.6412   0.7751   2.8978   3.7014   4.5664

          k = 0.2110 0.4466 0.0000 (  4999 PWs)   bands (ev):

   -20.0506 -14.4975 -12.5934  -7.5328  -0.7243   4.3169   5.0836   6.0319

          k = 0.2110 0.5278 0.0000 (  4992 PWs)   bands (ev):

   -18.8958 -15.9369 -13.0205  -6.3801  -2.1351   5.9853   6.5294   6.8604

          k = 0.2110 0.6090 0.0000 (  4980 PWs)   bands (ev):

   -17.9461 -16.9973 -13.1531  -5.7213  -2.8848   6.7809   7.7592   7.9832

          k = 0.2813 0.4872 0.0000 (  5012 PWs)   bands (ev):

   -18.9856 -15.2759 -13.7334  -6.3943  -1.9869   5.8500   6.2936   7.5911

          k = 0.2813 0.5684 0.0000 (  5004 PWs)   bands (ev):

   -17.8350 -16.3339 -14.2778  -5.2987  -3.1388   6.6511   7.5603   8.5198

          k = 0.3516 0.6090 0.0000 (  5010 PWs)   bands (ev):

   -16.8710 -16.8710 -14.9131  -4.1983  -4.1983   6.4523   8.7798   8.7798

     the Fermi energy is    -4.1983 ev

!    total energy              =     -22.79746077 Ry
     estimated scf accuracy    <          8.1E-11 Ry
     smearing contrib. (-TS)   =      -0.00005015 Ry
     internal energy E=F+TS    =     -22.79741062 Ry

     The total energy is F=E-TS. E is the sum of the following terms:
     one-electron contribution =    -390.89678809 Ry
     hartree contribution      =     196.07795544 Ry
     xc contribution           =      -7.03275115 Ry
     ewald contribution        =     179.05417318 Ry

     convergence has been achieved in   8 iterations

     Forces acting on atoms (cartesian axes, Ry/au):

     atom    1 type  1   force =     0.00000000    0.00000000    0.00000000
     atom    2 type  1   force =     0.00000000    0.00000000    0.00000000

     Total force =     0.000000     Total SCF correction =     0.000000


     Computing stress (Cartesian axis) and pressure

          total   stress  (Ry/bohr**3)                   (kbar)     P=       -4.41
  -0.00000005   0.00000000   0.00000000           -0.01        0.00        0.00
   0.00000000  -0.00000005   0.00000000            0.00       -0.01        0.00
   0.00000000   0.00000000  -0.00008990            0.00        0.00      -13.23

     Energy error            =      7.7E-07
     Gradient error          =      0.0E+00
     Cell gradient error     =      4.6E-08


     number of scf cycles    =   6
     number of bfgs steps    =   5

     enthalpy old            =     -22.7974600036 Ry
     enthalpy new            =     -22.7974607749 Ry

     CASE: enthalpy_new < enthalpy_old

     small trust_radius: resetting bfgs history

     new trust radius        =       0.0000063823 bohr
     new conv_thr            =            1.0E-10 Ry

     new unit-cell volume =    753.68311 a.u.^3 (   111.68431 Ang^3 )
     density =      0.35715 g/cm^3

CELL_PARAMETERS (alat=  4.89000000)
   0.947965877  -0.000000000   0.000000000
  -0.473982939   0.820962531   0.000000000
   0.000000000   0.000000000   8.282208589

ATOMIC_POSITIONS (crystal)
C             0.3333333333        0.6666666667        0.5000000000
C             0.6666666667        0.3333333333        0.5000000000



     Writing output data file ./work/LiC489.save/
     NEW-OLD atomic charge density approx. for the potential
     extrapolated charge    7.99998, renormalised to    8.00000

     total cpu time spent up to now is       12.2 secs

     Self-consistent Calculation

     iteration #  1     ecut=    50.00 Ry     beta= 0.70
     Davidson diagonalization with overlap
     ethr =  1.00E-06,  avg # of iterations =  1.0

     Threshold (ethr) on eigenvalues was too large:
     Diagonalizing with lowered threshold

     Davidson diagonalization with overlap
     ethr =  2.52E-12,  avg # of iterations =  1.9

     total cpu time spent up to now is       12.5 secs

     total energy              =     -22.79746077 Ry
     estimated scf accuracy    <          2.2E-10 Ry

     iteration #  2     ecut=    50.00 Ry     beta= 0.70
     Davidson diagonalization with overlap
     ethr =  2.77E-12,  avg # of iterations =  2.0

     total cpu time spent up to now is       12.6 secs

     End of self-consistent calculation

          k = 0.0000 0.0000 0.0000 (  5083 PWs)   bands (ev):

   -23.8591 -11.9293  -7.2876  -7.2876  -0.9803  -0.1978   0.5965   0.9497

          k = 0.0000 0.0812 0.0000 (  5097 PWs)   bands (ev):

   -23.7534 -11.8021  -7.7142  -7.5143  -0.8364  -0.0517   0.7435   1.0961

          k = 0.0000 0.1624 0.0000 (  5077 PWs)   bands (ev):

   -23.4369 -11.4229  -8.8444  -8.0852  -0.4044   0.3860   1.1847   1.5351

          k = 0.0000 0.2436 0.0000 (  5035 PWs)   bands (ev):

   -22.9117 -10.7983 -10.3977  -8.7994   0.3150   1.1132   1.9197   2.2644

          k = 0.0000 0.3248 0.0000 (  5020 PWs)   bands (ev):

   -22.1823 -12.1385  -9.9443  -9.4932   1.3197   2.0939   2.7117   2.9466

          k = 0.0000 0.4060 0.0000 (  5004 PWs)   bands (ev):

   -21.2556 -13.9134 -10.0707  -8.8929   0.7794   2.6009   3.4601   3.6591

          k = 0.0000 0.4872 0.0000 (  4986 PWs)   bands (ev):

   -20.1474 -15.6237 -10.4789  -7.7322  -0.9977   3.4326   4.2059   5.0422

          k = 0.0000 0.5684 0.0000 (  4928 PWs)   bands (ev):

   -18.9298 -17.1514 -10.6869  -6.7602  -2.2972   3.3422   6.0227   6.8906

          k = 0.0703 0.1218 0.0000 (  5083 PWs)   bands (ev):

   -23.5423 -11.5489  -8.4392  -7.9650  -0.5484   0.2402   1.0376   1.3889

          k = 0.0703 0.2030 0.0000 (  5051 PWs)   bands (ev):

   -23.1214 -11.0464  -9.6916  -8.6990   0.0277   0.8230   1.6259   1.9736

          k = 0.0703 0.2842 0.0000 (  5024 PWs)   bands (ev):

   -22.4941 -11.2798 -10.3062  -9.4637   0.8905   1.6913   2.5079   2.8406

          k = 0.0703 0.3654 0.0000 (  5017 PWs)   bands (ev):

   -21.6660 -13.0072 -10.1306  -9.3490   1.6324   2.0366   2.8807   3.6785

          k = 0.0703 0.4466 0.0000 (  4993 PWs)   bands (ev):

   -20.6474 -14.7357 -10.6374  -8.2268  -0.1820   3.4468   4.0342   4.3138

          k = 0.0703 0.5278 0.0000 (  4973 PWs)   bands (ev):

   -19.4669 -16.3654 -10.9519  -7.0934  -1.7738   3.8468   5.1839   6.0236

          k = 0.0703 0.6090 0.0000 (  4952 PWs)   bands (ev):

   -18.4862 -17.4992 -11.0585  -6.4942  -2.5310   3.7983   7.0493   7.2056

          k = 0.1407 0.2436 0.0000 (  5031 PWs)   bands (ev):

   -22.5984 -10.7935 -10.4272  -9.6714   0.7475   1.5496   2.3615   2.7030

          k = 0.1407 0.3248 0.0000 (  5014 PWs)   bands (ev):

   -21.8724 -12.1931 -10.5843  -9.5802   1.7529   2.1905   2.5731   3.3906

          k = 0.1407 0.4060 0.0000 (  5009 PWs)   bands (ev):

   -20.9517 -13.7935 -11.2624  -8.5361   0.4974   3.0389   3.8597   4.7093

          k = 0.1407 0.4872 0.0000 (  4973 PWs)   bands (ev):

   -19.8528 -15.4162 -11.7091  -7.3752  -1.1580   4.5869   5.2014   5.4116

          k = 0.1407 0.5684 0.0000 (  4975 PWs)   bands (ev):

   -18.6516 -16.8975 -11.9329  -6.3815  -2.4187   5.0704   6.4267   7.1171

          k = 0.2110 0.3654 0.0000 (  5019 PWs)   bands (ev):

   -21.0537 -13.2065 -11.7690  -8.6411   0.7752   2.8978   3.7014   4.5664

          k = 0.2110 0.4466 0.0000 (  4999 PWs)   bands (ev):

   -20.0505 -14.4974 -12.5934  -7.5328  -0.7243   4.3169   5.0836   6.0319

          k = 0.2110 0.5278 0.0000 (  4992 PWs)   bands (ev):

   -18.8957 -15.9369 -13.0204  -6.3800  -2.1350   5.9854   6.5294   6.8605

          k = 0.2110 0.6090 0.0000 (  4980 PWs)   bands (ev):

   -17.9460 -16.9972 -13.1530  -5.7212  -2.8847   6.7810   7.7592   7.9832

          k = 0.2813 0.4872 0.0000 (  5012 PWs)   bands (ev):

   -18.9855 -15.2758 -13.7334  -6.3942  -1.9868   5.8500   6.2936   7.5911

          k = 0.2813 0.5684 0.0000 (  5004 PWs)   bands (ev):

   -17.8349 -16.3338 -14.2778  -5.2986  -3.1388   6.6512   7.5604   8.5199

          k = 0.3516 0.6090 0.0000 (  5010 PWs)   bands (ev):

   -16.8709 -16.8709 -14.9131  -4.1982  -4.1982   6.4524   8.7799   8.7799

     the Fermi energy is    -4.1982 ev

!    total energy              =     -22.79746077 Ry
     estimated scf accuracy    <          9.6E-11 Ry
     smearing contrib. (-TS)   =      -0.00005015 Ry
     internal energy E=F+TS    =     -22.79741062 Ry

     The total energy is F=E-TS. E is the sum of the following terms:
     one-electron contribution =    -390.89770444 Ry
     hartree contribution      =     196.07841458 Ry
     xc contribution           =      -7.03275638 Ry
     ewald contribution        =     179.05463562 Ry

     convergence has been achieved in   2 iterations

     Forces acting on atoms (cartesian axes, Ry/au):

     atom    1 type  1   force =     0.00000000    0.00000000    0.00000000
     atom    2 type  1   force =    -0.00000000   -0.00000000    0.00000000

     Total force =     0.000000     Total SCF correction =     0.000000


     Computing stress (Cartesian axis) and pressure

          total   stress  (Ry/bohr**3)                   (kbar)     P=       -4.41
  -0.00000003   0.00000000  -0.00000000           -0.00        0.00       -0.00
   0.00000000  -0.00000003  -0.00000000            0.00       -0.00       -0.00
  -0.00000000   0.00000000  -0.00008991           -0.00        0.00      -13.23

     Energy error            =      6.4E-11
     Gradient error          =      1.8E-26
     Cell gradient error     =      2.5E-08


     number of scf cycles    =   7
     number of bfgs steps    =   6

     enthalpy old            =     -22.7974607749 Ry
     enthalpy new            =     -22.7974607749 Ry

     CASE: enthalpy_new < enthalpy_old

     Message from routine bfgs:
     history already reset at previous step: stopping
     small trust_radius: resetting bfgs history

     new trust radius        =       0.0000034328 bohr
     new conv_thr            =            1.0E-10 Ry

     new unit-cell volume =    753.68217 a.u.^3 (   111.68417 Ang^3 )
     density =      0.35715 g/cm^3

CELL_PARAMETERS (alat=  4.89000000)
   0.947965284  -0.000000000   0.000000000
  -0.473982642   0.820962018   0.000000000
   0.000000000   0.000000000   8.282208589

ATOMIC_POSITIONS (crystal)
C             0.3333333333        0.6666666667        0.5000000000
C             0.6666666667        0.3333333333        0.5000000000



     Writing output data file ./work/LiC489.save/
     NEW-OLD atomic charge density approx. for the potential
     extrapolated charge    7.99999, renormalised to    8.00000

     total cpu time spent up to now is       12.7 secs

     Self-consistent Calculation

     iteration #  1     ecut=    50.00 Ry     beta= 0.70
     Davidson diagonalization with overlap
     ethr =  1.00E-06,  avg # of iterations =  1.0

     Threshold (ethr) on eigenvalues was too large:
     Diagonalizing with lowered threshold

     Davidson diagonalization with overlap
     ethr =  1.18E-12,  avg # of iterations =  1.7

     total cpu time spent up to now is       12.9 secs

     total energy              =     -22.79746077 Ry
     estimated scf accuracy    <          1.0E-10 Ry

     iteration #  2     ecut=    50.00 Ry     beta= 0.70
     Davidson diagonalization with overlap
     ethr =  1.29E-12,  avg # of iterations =  2.0

     total cpu time spent up to now is       13.0 secs

     End of self-consistent calculation

          k = 0.0000 0.0000 0.0000 (  5083 PWs)   bands (ev):

   -23.8592 -11.9294  -7.2876  -7.2876  -0.9803  -0.1978   0.5965   0.9496

          k = 0.0000 0.0812 0.0000 (  5097 PWs)   bands (ev):

   -23.7535 -11.8022  -7.7143  -7.5144  -0.8364  -0.0517   0.7435   1.0961

          k = 0.0000 0.1624 0.0000 (  5077 PWs)   bands (ev):

   -23.4370 -11.4229  -8.8444  -8.0853  -0.4045   0.3860   1.1846   1.5351

          k = 0.0000 0.2436 0.0000 (  5035 PWs)   bands (ev):

   -22.9118 -10.7984 -10.3978  -8.7994   0.3150   1.1131   1.9197   2.2644

          k = 0.0000 0.3248 0.0000 (  5020 PWs)   bands (ev):

   -22.1823 -12.1386  -9.9444  -9.4932   1.3196   2.0939   2.7117   2.9466

          k = 0.0000 0.4060 0.0000 (  5004 PWs)   bands (ev):

   -21.2557 -13.9135 -10.0707  -8.8930   0.7793   2.6009   3.4601   3.6590

          k = 0.0000 0.4872 0.0000 (  4986 PWs)   bands (ev):

   -20.1475 -15.6237 -10.4790  -7.7323  -0.9977   3.4325   4.2059   5.0422

          k = 0.0000 0.5684 0.0000 (  4928 PWs)   bands (ev):

   -18.9298 -17.1515 -10.6870  -6.7603  -2.2972   3.3422   6.0227   6.8906

          k = 0.0703 0.1218 0.0000 (  5083 PWs)   bands (ev):

   -23.5423 -11.5490  -8.4393  -7.9651  -0.5484   0.2402   1.0376   1.3889

          k = 0.0703 0.2030 0.0000 (  5051 PWs)   bands (ev):

   -23.1215 -11.0465  -9.6917  -8.6991   0.0276   0.8230   1.6259   1.9736

          k = 0.0703 0.2842 0.0000 (  5024 PWs)   bands (ev):

   -22.4942 -11.2799 -10.3062  -9.4637   0.8904   1.6913   2.5079   2.8406

          k = 0.0703 0.3654 0.0000 (  5017 PWs)   bands (ev):

   -21.6660 -13.0073 -10.1306  -9.3490   1.6324   2.0366   2.8807   3.6785

          k = 0.0703 0.4466 0.0000 (  4993 PWs)   bands (ev):

   -20.6475 -14.7358 -10.6375  -8.2268  -0.1820   3.4468   4.0341   4.3138

          k = 0.0703 0.5278 0.0000 (  4973 PWs)   bands (ev):

   -19.4670 -16.3655 -10.9520  -7.0935  -1.7739   3.8468   5.1838   6.0236

          k = 0.0703 0.6090 0.0000 (  4952 PWs)   bands (ev):

   -18.4862 -17.4992 -11.0586  -6.4942  -2.5311   3.7983   7.0493   7.2056

          k = 0.1407 0.2436 0.0000 (  5031 PWs)   bands (ev):

   -22.5985 -10.7936 -10.4272  -9.6714   0.7475   1.5496   2.3615   2.7030

          k = 0.1407 0.3248 0.0000 (  5014 PWs)   bands (ev):

   -21.8725 -12.1932 -10.5844  -9.5803   1.7528   2.1904   2.5731   3.3906

          k = 0.1407 0.4060 0.0000 (  5009 PWs)   bands (ev):

   -20.9518 -13.7935 -11.2625  -8.5361   0.4974   3.0388   3.8597   4.7093

          k = 0.1407 0.4872 0.0000 (  4973 PWs)   bands (ev):

   -19.8529 -15.4163 -11.7091  -7.3752  -1.1580   4.5869   5.2013   5.4116

          k = 0.1407 0.5684 0.0000 (  4975 PWs)   bands (ev):

   -18.6516 -16.8976 -11.9330  -6.3816  -2.4187   5.0703   6.4266   7.1171

          k = 0.2110 0.3654 0.0000 (  5019 PWs)   bands (ev):

   -21.0538 -13.2066 -11.7690  -8.6412   0.7751   2.8978   3.7014   4.5664

          k = 0.2110 0.4466 0.0000 (  4999 PWs)   bands (ev):

   -20.0506 -14.4975 -12.5934  -7.5328  -0.7243   4.3169   5.0836   6.0319

          k = 0.2110 0.5278 0.0000 (  4992 PWs)   bands (ev):

   -18.8958 -15.9369 -13.0205  -6.3801  -2.1351   5.9853   6.5294   6.8605

          k = 0.2110 0.6090 0.0000 (  4980 PWs)   bands (ev):

   -17.9461 -16.9973 -13.1531  -5.7213  -2.8847   6.7809   7.7592   7.9832

          k = 0.2813 0.4872 0.0000 (  5012 PWs)   bands (ev):

   -18.9856 -15.2759 -13.7334  -6.3943  -1.9868   5.8500   6.2936   7.5911

          k = 0.2813 0.5684 0.0000 (  5004 PWs)   bands (ev):

   -17.8350 -16.3339 -14.2778  -5.2987  -3.1388   6.6512   7.5603   8.5198

          k = 0.3516 0.6090 0.0000 (  5010 PWs)   bands (ev):

   -16.8710 -16.8710 -14.9132  -4.1983  -4.1983   6.4523   8.7799   8.7799

     the Fermi energy is    -4.1983 ev

!    total energy              =     -22.79746077 Ry
     estimated scf accuracy    <          2.9E-11 Ry
     smearing contrib. (-TS)   =      -0.00005015 Ry
     internal energy E=F+TS    =     -22.79741062 Ry

     The total energy is F=E-TS. E is the sum of the following terms:
     one-electron contribution =    -390.89821400 Ry
     hartree contribution      =     196.07867975 Ry
     xc contribution           =      -7.03276073 Ry
     ewald contribution        =     179.05488436 Ry

     convergence has been achieved in   2 iterations

     Forces acting on atoms (cartesian axes, Ry/au):

     atom    1 type  1   force =     0.00000000    0.00000000    0.00000000
     atom    2 type  1   force =     0.00000000    0.00000000    0.00000000

     Total force =     0.000000     Total SCF correction =     0.000000


     Computing stress (Cartesian axis) and pressure

          total   stress  (Ry/bohr**3)                   (kbar)     P=       -4.41
  -0.00000002   0.00000000  -0.00000000           -0.00        0.00       -0.00
   0.00000000  -0.00000002  -0.00000000            0.00       -0.00       -0.00
  -0.00000000  -0.00000000  -0.00008989           -0.00       -0.00      -13.22

     Message from routine bfgs:
     history already reset at previous step: stopping
     Energy error            =      3.4E-12
     Gradient error          =      0.0E+00
     Cell gradient error     =      1.9E-08


     bfgs converged in   8 scf cycles and   7 bfgs steps
     (criteria: energy <  1.0E-04 Ry, force <  1.0E-08Ry/Bohr, cell <  1.0E-03kbar)

     End of BFGS Geometry Optimization

     Final enthalpy =     -22.7974607749 Ry

     File ./work/LiC489.bfgs deleted, as requested
Begin final coordinates
     new unit-cell volume =    753.68217 a.u.^3 (   111.68417 Ang^3 )
     density =      0.35715 g/cm^3

CELL_PARAMETERS (alat=  4.89000000)
   0.947965284  -0.000000000   0.000000000
  -0.473982642   0.820962018   0.000000000
   0.000000000   0.000000000   8.282208589

ATOMIC_POSITIONS (crystal)
C             0.3333333333        0.6666666667        0.5000000000
C             0.6666666667        0.3333333333        0.5000000000
End final coordinates



     Writing output data file ./work/LiC489.save/

     Final scf calculation at the relaxed structure.
     The G-vectors are recalculated for the final unit cell
     Results may differ from those at the preceding step.
 
     Parallelization info
     --------------------
     sticks:   dense  smooth     PW     G-vecs:    dense   smooth      PW
     Min           9       9      2                 1115     1115     170
     Max          10      10      3                 1146     1146     215
     Sum         301     301     91                36063    36063    6397
 


     bravais-lattice index     =            4
     lattice parameter (alat)  =       4.8900  a.u.
     unit-cell volume          =     753.6822 (a.u.)^3
     number of atoms/cell      =            2
     number of atomic types    =            1
     number of electrons       =         8.00
     number of Kohn-Sham states=            8
     kinetic-energy cutoff     =      50.0000  Ry
     charge density cutoff     =     200.0000  Ry
     scf convergence threshold =      1.0E-10
     mixing beta               =       0.7000
     number of iterations used =            8  plain     mixing
     press convergence thresh. =      1.0E-03
     Exchange-correlation= PBE
                           (   1   4   3   4   0   0   0)

     celldm(1)=   4.890000  celldm(2)=   0.000000  celldm(3)=   8.282209
     celldm(4)=   0.000000  celldm(5)=   0.000000  celldm(6)=   0.000000

     crystal axes: (cart. coord. in units of alat)
               a(1) = (   0.947965  -0.000000   0.000000 )  
               a(2) = (  -0.473983   0.820962   0.000000 )  
               a(3) = (   0.000000   0.000000   8.282209 )  

     reciprocal axes: (cart. coord. in units 2 pi/alat)
               b(1) = (  1.054891  0.609042  0.000000 )  
               b(2) = (  0.000000  1.218083  0.000000 )  
               b(3) = (  0.000000  0.000000  0.120741 )  


     PseudoPot. # 1 for C  read from file:
     /home/yhkim/qe-6.7/pseudo/ONCV1/1.2/C_ONCV_PBE-1.2.upf
     MD5 check sum: 1a5f83a7b1f58d24996abe00ed223ac6
     Pseudo is Norm-conserving, Zval =  4.0
     Generated using ONCVPSP code by D. R. Hamann
     Using radial grid of  602 points,  4 beta functions with: 
                l(1) =   0
                l(2) =   0
                l(3) =   1
                l(4) =   1

     atomic species   valence    mass     pseudopotential
        C              4.00    12.01070     C ( 1.00)

     24 Sym. Ops., with inversion, found



   Cartesian axes

     site n.     atom                  positions (alat units)
         1           C   tau(   1) = (  -0.0000000   0.5473080   4.1411043  )
         2           C   tau(   2) = (   0.4739826   0.2736540   4.1411043  )

     number of k points=    27  Methfessel-Paxton smearing, width (Ry)=  0.0100
                       cart. coord. in units 2pi/alat
        k(    1) = (   0.0000000   0.0000000   0.0000000), wk =   0.0088889
        k(    2) = (   0.0000000   0.0812055   0.0000000), wk =   0.0533333
        k(    3) = (   0.0000000   0.1624111   0.0000000), wk =   0.0533333
        k(    4) = (   0.0000000   0.2436166   0.0000000), wk =   0.0533333
        k(    5) = (   0.0000000   0.3248222   0.0000000), wk =   0.0533333
        k(    6) = (   0.0000000   0.4060277   0.0000000), wk =   0.0533333
        k(    7) = (   0.0000000   0.4872333   0.0000000), wk =   0.0533333
        k(    8) = (   0.0000000   0.5684388   0.0000000), wk =   0.0533333
        k(    9) = (   0.0703261   0.1218083   0.0000000), wk =   0.0533333
        k(   10) = (   0.0703261   0.2030139   0.0000000), wk =   0.1066667
        k(   11) = (   0.0703261   0.2842194   0.0000000), wk =   0.1066667
        k(   12) = (   0.0703261   0.3654249   0.0000000), wk =   0.1066667
        k(   13) = (   0.0703261   0.4466305   0.0000000), wk =   0.1066667
        k(   14) = (   0.0703261   0.5278360   0.0000000), wk =   0.1066667
        k(   15) = (   0.0703261   0.6090416   0.0000000), wk =   0.0533333
        k(   16) = (   0.1406521   0.2436166   0.0000000), wk =   0.0533333
        k(   17) = (   0.1406521   0.3248222   0.0000000), wk =   0.1066667
        k(   18) = (   0.1406521   0.4060277   0.0000000), wk =   0.1066667
        k(   19) = (   0.1406521   0.4872333   0.0000000), wk =   0.1066667
        k(   20) = (   0.1406521   0.5684388   0.0000000), wk =   0.1066667
        k(   21) = (   0.2109782   0.3654249   0.0000000), wk =   0.0533333
        k(   22) = (   0.2109782   0.4466305   0.0000000), wk =   0.1066667
        k(   23) = (   0.2109782   0.5278360   0.0000000), wk =   0.1066667
        k(   24) = (   0.2109782   0.6090416   0.0000000), wk =   0.0533333
        k(   25) = (   0.2813043   0.4872333   0.0000000), wk =   0.0533333
        k(   26) = (   0.2813043   0.5684388   0.0000000), wk =   0.1066667
        k(   27) = (   0.3516303   0.6090416   0.0000000), wk =   0.0177778

     Dense  grid:    36063 G-vectors     FFT dimensions: (  24,  24, 192)

     Estimated max dynamical RAM per process >       1.96 MB

     Estimated total dynamical RAM >      62.62 MB
 ----2D----2D----2D----2D----2D----2D----2D----2D----2D----2D----2D----2D
  The code is running with the 2D cutoff
  Please refer to:
  Sohier, T., Calandra, M., & Mauri, F. (2017), 
  Density functional perturbation theory for gated two-dimensional heterostructu
 res:
  Theoretical developments and application to flexural phonons in graphene.
  Physical Review B, 96(7), 75448. https://doi.org/10.1103/PhysRevB.96.075448
 ----2D----2D----2D----2D----2D----2D----2D----2D----2D----2D----2D----2D

     Initial potential from superposition of free atoms

     starting charge    7.98607, renormalised to    8.00000

     negative rho (up, down):  1.159E-04 0.000E+00
     Starting wfcs are random

     total cpu time spent up to now is       13.1 secs

     Self-consistent Calculation

     iteration #  1     ecut=    50.00 Ry     beta= 0.70
     Davidson diagonalization with overlap
     c_bands:  1 eigenvalues not converged
     c_bands:  3 eigenvalues not converged
     c_bands:  1 eigenvalues not converged
     c_bands:  5 eigenvalues not converged
     c_bands:  4 eigenvalues not converged
     c_bands:  3 eigenvalues not converged
     c_bands:  4 eigenvalues not converged
     c_bands:  2 eigenvalues not converged
     c_bands:  5 eigenvalues not converged
     c_bands:  4 eigenvalues not converged
     c_bands:  4 eigenvalues not converged
     c_bands:  4 eigenvalues not converged
     c_bands:  3 eigenvalues not converged
     c_bands:  2 eigenvalues not converged
     c_bands:  3 eigenvalues not converged
     c_bands:  4 eigenvalues not converged
     c_bands:  4 eigenvalues not converged
     c_bands:  3 eigenvalues not converged
     c_bands:  3 eigenvalues not converged
     c_bands:  3 eigenvalues not converged
     c_bands:  4 eigenvalues not converged
     c_bands:  3 eigenvalues not converged
     c_bands:  3 eigenvalues not converged
     c_bands:  3 eigenvalues not converged
     c_bands:  4 eigenvalues not converged
     c_bands:  3 eigenvalues not converged
     c_bands:  3 eigenvalues not converged
     ethr =  1.00E-06,  avg # of iterations = 22.2

     negative rho (up, down):  2.306E-05 0.000E+00

     total cpu time spent up to now is       13.9 secs

     total energy              =     -22.76025478 Ry
     estimated scf accuracy    <       0.19902746 Ry

     iteration #  2     ecut=    50.00 Ry     beta= 0.70
     Davidson diagonalization with overlap
     ethr =  2.49E-03,  avg # of iterations =  2.3

     negative rho (up, down):  2.970E-06 0.000E+00

     total cpu time spent up to now is       14.0 secs

     total energy              =     -22.79024270 Ry
     estimated scf accuracy    <       0.00233843 Ry

     iteration #  3     ecut=    50.00 Ry     beta= 0.70
     Davidson diagonalization with overlap
     ethr =  2.92E-05,  avg # of iterations =  9.3

     total cpu time spent up to now is       14.2 secs

     total energy              =     -22.79063115 Ry
     estimated scf accuracy    <       0.00017389 Ry

     iteration #  4     ecut=    50.00 Ry     beta= 0.70
     Davidson diagonalization with overlap
     c_bands:  1 eigenvalues not converged
     ethr =  2.17E-06,  avg # of iterations =  5.5

     total cpu time spent up to now is       14.4 secs

     total energy              =     -22.79064473 Ry
     estimated scf accuracy    <       0.00000122 Ry

     iteration #  5     ecut=    50.00 Ry     beta= 0.70
     Davidson diagonalization with overlap
     ethr =  1.53E-08,  avg # of iterations =  3.8

     total cpu time spent up to now is       14.5 secs

     total energy              =     -22.79064622 Ry
     estimated scf accuracy    <       0.00000004 Ry

     iteration #  6     ecut=    50.00 Ry     beta= 0.70
     Davidson diagonalization with overlap
     ethr =  4.64E-10,  avg # of iterations =  2.7

     total cpu time spent up to now is       14.6 secs

     total energy              =     -22.79064623 Ry
     estimated scf accuracy    <          9.9E-10 Ry

     iteration #  7     ecut=    50.00 Ry     beta= 0.70
     Davidson diagonalization with overlap
     ethr =  1.24E-11,  avg # of iterations =  2.9

     total cpu time spent up to now is       14.7 secs

     End of self-consistent calculation

          k = 0.0000 0.0000 0.0000 (  4459 PWs)   bands (ev):

   -23.8701 -11.9332  -7.2751  -7.2751  -0.9830  -0.2036   0.5839   0.9390

          k = 0.0000 0.0812 0.0000 (  4467 PWs)   bands (ev):

   -23.7641 -11.8052  -7.7025  -7.5021  -0.8390  -0.0575   0.7309   1.0855

          k = 0.0000 0.1624 0.0000 (  4489 PWs)   bands (ev):

   -23.4474 -11.4257  -8.8337  -8.0728  -0.4070   0.3804   1.1721   1.5245

          k = 0.0000 0.2436 0.0000 (  4471 PWs)   bands (ev):

   -22.9220 -10.8013 -10.3872  -8.7854   0.3126   1.1076   1.9071   2.2537

          k = 0.0000 0.3248 0.0000 (  4509 PWs)   bands (ev):

   -22.1923 -12.1348  -9.9468  -9.4834   1.3174   2.0895   2.7148   2.9341

          k = 0.0000 0.4060 0.0000 (  4519 PWs)   bands (ev):

   -21.2655 -13.9149 -10.0611  -8.8948   0.7823   2.5990   3.4550   3.6545

          k = 0.0000 0.4872 0.0000 (  4521 PWs)   bands (ev):

   -20.1568 -15.6285 -10.4704  -7.7334  -0.9954   3.4261   4.2034   5.0379

          k = 0.0000 0.5684 0.0000 (  4521 PWs)   bands (ev):

   -18.9391 -17.1577 -10.6806  -6.7612  -2.2968   3.3341   6.0211   6.8867

          k = 0.0703 0.1218 0.0000 (  4503 PWs)   bands (ev):

   -23.5529 -11.5516  -8.4294  -7.9551  -0.5510   0.2345   1.0250   1.3783

          k = 0.0703 0.2030 0.0000 (  4489 PWs)   bands (ev):

   -23.1319 -11.0493  -9.6808  -8.6890   0.0252   0.8175   1.6134   1.9629

          k = 0.0703 0.2842 0.0000 (  4485 PWs)   bands (ev):

   -22.5043 -11.2732 -10.3082  -9.4527   0.8881   1.6860   2.4954   2.8305

          k = 0.0703 0.3654 0.0000 (  4500 PWs)   bands (ev):

   -21.6759 -13.0056 -10.1209  -9.3511   1.6371   2.0345   2.8755   3.6667

          k = 0.0703 0.4466 0.0000 (  4508 PWs)   bands (ev):

   -20.6569 -14.7385 -10.6289  -8.2284  -0.1790   3.4453   4.0300   4.3091

          k = 0.0703 0.5278 0.0000 (  4521 PWs)   bands (ev):

   -19.4762 -16.3708 -10.9453  -7.0950  -1.7723   3.8414   5.1819   6.0194

          k = 0.0703 0.6090 0.0000 (  4526 PWs)   bands (ev):

   -18.4959 -17.5052 -11.0525  -6.4959  -2.5305   3.7921   7.0484   7.2046

          k = 0.1407 0.2436 0.0000 (  4489 PWs)   bands (ev):

   -22.6086 -10.7865 -10.4295  -9.6628   0.7451   1.5442   2.3490   2.6925

          k = 0.1407 0.3248 0.0000 (  4487 PWs)   bands (ev):

   -21.8826 -12.1895 -10.5761  -9.5822   1.7506   2.1965   2.5682   3.3784

          k = 0.1407 0.4060 0.0000 (  4505 PWs)   bands (ev):

   -20.9614 -13.7937 -11.2558  -8.5382   0.4979   3.0369   3.8549   4.6972

          k = 0.1407 0.4872 0.0000 (  4511 PWs)   bands (ev):

   -19.8623 -15.4201 -11.7040  -7.3776  -1.1579   4.5857   5.2012   5.4075

          k = 0.1407 0.5684 0.0000 (  4505 PWs)   bands (ev):

   -18.6603 -16.9032 -11.9282  -6.3831  -2.4175   5.0697   6.4255   7.1150

          k = 0.2110 0.3654 0.0000 (  4489 PWs)   bands (ev):

   -21.0635 -13.2055 -11.7625  -8.6436   0.7787   2.8957   3.6966   4.5540

          k = 0.2110 0.4466 0.0000 (  4499 PWs)   bands (ev):

   -20.0600 -14.4998 -12.5887  -7.5346  -0.7217   4.3152   5.0797   6.0197

          k = 0.2110 0.5278 0.0000 (  4499 PWs)   bands (ev):

   -18.9043 -15.9415 -13.0160  -6.3817  -2.1335   5.9847   6.5273   6.8683

          k = 0.2110 0.6090 0.0000 (  4498 PWs)   bands (ev):

   -17.9547 -17.0025 -13.1493  -5.7219  -2.8841   6.7882   7.1806   7.7607

          k = 0.2813 0.4872 0.0000 (  4481 PWs)   bands (ev):

   -18.9942 -15.2792 -13.7296  -6.3939  -1.9857   5.8490   6.2917   7.5848

          k = 0.2813 0.5684 0.0000 (  4488 PWs)   bands (ev):

   -17.8424 -16.3389 -14.2752  -5.2980  -3.1389   6.6489   7.5620   8.5354

          k = 0.3516 0.6090 0.0000 (  4473 PWs)   bands (ev):

   -16.8769 -16.8769 -14.9109  -4.1976  -4.1976   6.4494   8.7917   8.7923

     the Fermi energy is    -4.1976 ev

!    total energy              =     -22.79064623 Ry
     estimated scf accuracy    <          9.5E-12 Ry
     smearing contrib. (-TS)   =      -0.00005015 Ry
     internal energy E=F+TS    =     -22.79059608 Ry

     The total energy is F=E-TS. E is the sum of the following terms:
     one-electron contribution =    -390.88431245 Ry
     hartree contribution      =     196.07119221 Ry
     xc contribution           =      -7.03236018 Ry
     ewald contribution        =     179.05488433 Ry

     convergence has been achieved in   7 iterations

     Forces acting on atoms (cartesian axes, Ry/au):

     atom    1 type  1   force =     0.00000000    0.00000000    0.00000000
     atom    2 type  1   force =     0.00000000    0.00000000    0.00000000

     Total force =     0.000000     Total SCF correction =     0.000000


     Computing stress (Cartesian axis) and pressure

          total   stress  (Ry/bohr**3)                   (kbar)     P=       -9.09
  -0.00003809   0.00000000   0.00000000           -5.60        0.00        0.00
   0.00000000  -0.00003809   0.00000000            0.00       -5.60        0.00
  -0.00000000  -0.00000000  -0.00010923           -0.00       -0.00      -16.07


     Writing output data file ./work/LiC489.save/
 
     init_run     :      0.13s CPU      0.15s WALL (       2 calls)
     electrons    :     13.00s CPU     14.14s WALL (       9 calls)
     update_pot   :      0.10s CPU      0.10s WALL (       7 calls)
     forces       :      0.07s CPU      0.08s WALL (       9 calls)
     stress       :      0.21s CPU      0.22s WALL (       9 calls)

     Called by init_run:
     wfcinit      :      0.09s CPU      0.10s WALL (       2 calls)
     potinit      :      0.01s CPU      0.02s WALL (       2 calls)
     hinit0       :      0.01s CPU      0.01s WALL (       2 calls)

     Called by electrons:
     c_bands      :     11.29s CPU     12.15s WALL (      81 calls)
     sum_band     :      1.52s CPU      1.62s WALL (      81 calls)
     v_of_rho     :      0.15s CPU      0.16s WALL (      87 calls)
     mix_rho      :      0.03s CPU      0.03s WALL (      81 calls)

     Called by c_bands:
     init_us_2    :      0.10s CPU      0.11s WALL (    4914 calls)
     cegterg      :     11.03s CPU     11.84s WALL (    2190 calls)

     Called by *egterg:
     cdiaghg      :      1.01s CPU      1.08s WALL (   11352 calls)
     h_psi        :      9.28s CPU      9.97s WALL (   11679 calls)
     g_psi        :      0.03s CPU      0.03s WALL (    9435 calls)

     Called by h_psi:
     h_psi:calbec :      0.34s CPU      0.37s WALL (   11679 calls)
     vloc_psi     :      8.75s CPU      9.40s WALL (   11679 calls)
     add_vuspsi   :      0.09s CPU      0.10s WALL (   11679 calls)

     General routines
     calbec       :      0.38s CPU      0.41s WALL (   12894 calls)
     fft          :      0.14s CPU      0.15s WALL (     943 calls)
     ffts         :      0.01s CPU      0.01s WALL (      81 calls)
     fftw         :      9.60s CPU     10.30s WALL (  134576 calls)
 
     Parallel routines
     fft_scatt_xy :      0.62s CPU      0.66s WALL (  135600 calls)
     fft_scatt_yz :      5.69s CPU      6.10s WALL (  135600 calls)
 
     PWSCF        :     13.60s CPU     15.02s WALL

 
   This run was terminated on:  14:19: 8  19Jan2024            

=------------------------------------------------------------------------------=
   JOB DONE.
=------------------------------------------------------------------------------=
