
     Program PWSCF v.6.7MaX starts on 19Jan2024 at 14: 6:27 

     This program is part of the open-source Quantum ESPRESSO suite
     for quantum simulation of materials; please cite
         "P. Giannozzi et al., J. Phys.:Condens. Matter 21 395502 (2009);
         "P. Giannozzi et al., J. Phys.:Condens. Matter 29 465901 (2017);
          URL http://www.quantum-espresso.org", 
     in publications or presentations arising from this work. More details at
     http://www.quantum-espresso.org/quote

     Parallel version (MPI), running on    32 processors

     MPI processes distributed on     1 nodes
     R & G space division:  proc/nbgrp/npool/nimage =      32
     Waiting for input...
     Reading input from standard input

     Current dimensions of program PWSCF are:
     Max number of different atomic species (ntypx) = 10
     Max number of k-points (npk) =  40000
     Max angular momentum in pseudopotentials (lmaxx) =  3
     Message from routine read_pp_mesh:
     mesh size missing, using the one in header

     Subspace diagonalization in iterative solution of the eigenvalue problem:
     a serial algorithm will be used

 
     Parallelization info
     --------------------
     sticks:   dense  smooth     PW     G-vecs:    dense   smooth      PW
     Min           7       7      2                  925      925     162
     Max           8       8      3                  958      958     195
     Sum         253     253     85                30303    30303    5671
 


     bravais-lattice index     =            4
     lattice parameter (alat)  =       4.2400  a.u.
     unit-cell volume          =     630.5469 (a.u.)^3
     number of atoms/cell      =            2
     number of atomic types    =            1
     number of electrons       =         8.00
     number of Kohn-Sham states=            8
     kinetic-energy cutoff     =      50.0000  Ry
     charge density cutoff     =     200.0000  Ry
     scf convergence threshold =      1.0E-08
     mixing beta               =       0.7000
     number of iterations used =            8  plain     mixing
     energy convergence thresh.=      1.0E-04
     force convergence thresh. =      1.0E-08
     press convergence thresh. =      1.0E-03
     Exchange-correlation= PBE
                           (   1   4   3   4   0   0   0)
     nstep                     =           50


     celldm(1)=   4.240000  celldm(2)=   0.000000  celldm(3)=   9.551887
     celldm(4)=   0.000000  celldm(5)=   0.000000  celldm(6)=   0.000000

     crystal axes: (cart. coord. in units of alat)
               a(1) = (   1.000000   0.000000   0.000000 )  
               a(2) = (  -0.500000   0.866025   0.000000 )  
               a(3) = (   0.000000   0.000000   9.551887 )  

     reciprocal axes: (cart. coord. in units 2 pi/alat)
               b(1) = (  1.000000  0.577350  0.000000 )  
               b(2) = (  0.000000  1.154701  0.000000 )  
               b(3) = (  0.000000  0.000000  0.104691 )  


     PseudoPot. # 1 for C  read from file:
     /home/yhkim/qe-6.7/pseudo/ONCV1/1.2/C_ONCV_PBE-1.2.upf
     MD5 check sum: 1a5f83a7b1f58d24996abe00ed223ac6
     Pseudo is Norm-conserving, Zval =  4.0
     Generated using ONCVPSP code by D. R. Hamann
     Using radial grid of  602 points,  4 beta functions with: 
                l(1) =   0
                l(2) =   0
                l(3) =   1
                l(4) =   1

     atomic species   valence    mass     pseudopotential
        C              4.00    12.01070     C ( 1.00)

     24 Sym. Ops., with inversion, found



   Cartesian axes

     site n.     atom                  positions (alat units)
         1           C   tau(   1) = (  -0.0000000   0.5773503   4.7759434  )
         2           C   tau(   2) = (   0.5000000   0.2886751   4.7759434  )

     number of k points=    27  Methfessel-Paxton smearing, width (Ry)=  0.0100
                       cart. coord. in units 2pi/alat
        k(    1) = (   0.0000000   0.0000000   0.0000000), wk =   0.0088889
        k(    2) = (   0.0000000   0.0769800   0.0000000), wk =   0.0533333
        k(    3) = (   0.0000000   0.1539601   0.0000000), wk =   0.0533333
        k(    4) = (   0.0000000   0.2309401   0.0000000), wk =   0.0533333
        k(    5) = (   0.0000000   0.3079201   0.0000000), wk =   0.0533333
        k(    6) = (   0.0000000   0.3849002   0.0000000), wk =   0.0533333
        k(    7) = (   0.0000000   0.4618802   0.0000000), wk =   0.0533333
        k(    8) = (   0.0000000   0.5388603   0.0000000), wk =   0.0533333
        k(    9) = (   0.0666667   0.1154701   0.0000000), wk =   0.0533333
        k(   10) = (   0.0666667   0.1924501   0.0000000), wk =   0.1066667
        k(   11) = (   0.0666667   0.2694301   0.0000000), wk =   0.1066667
        k(   12) = (   0.0666667   0.3464102   0.0000000), wk =   0.1066667
        k(   13) = (   0.0666667   0.4233902   0.0000000), wk =   0.1066667
        k(   14) = (   0.0666667   0.5003702   0.0000000), wk =   0.1066667
        k(   15) = (   0.0666667   0.5773503   0.0000000), wk =   0.0533333
        k(   16) = (   0.1333333   0.2309401   0.0000000), wk =   0.0533333
        k(   17) = (   0.1333333   0.3079201   0.0000000), wk =   0.1066667
        k(   18) = (   0.1333333   0.3849002   0.0000000), wk =   0.1066667
        k(   19) = (   0.1333333   0.4618802   0.0000000), wk =   0.1066667
        k(   20) = (   0.1333333   0.5388603   0.0000000), wk =   0.1066667
        k(   21) = (   0.2000000   0.3464102   0.0000000), wk =   0.0533333
        k(   22) = (   0.2000000   0.4233902   0.0000000), wk =   0.1066667
        k(   23) = (   0.2000000   0.5003702   0.0000000), wk =   0.1066667
        k(   24) = (   0.2000000   0.5773503   0.0000000), wk =   0.0533333
        k(   25) = (   0.2666667   0.4618802   0.0000000), wk =   0.0533333
        k(   26) = (   0.2666667   0.5388603   0.0000000), wk =   0.1066667
        k(   27) = (   0.3333333   0.5773503   0.0000000), wk =   0.0177778

     Dense  grid:    30303 G-vectors     FFT dimensions: (  20,  20, 192)

     Estimated max dynamical RAM per process >       1.71 MB

     Estimated total dynamical RAM >      54.72 MB
 ----2D----2D----2D----2D----2D----2D----2D----2D----2D----2D----2D----2D
  The code is running with the 2D cutoff
  Please refer to:
  Sohier, T., Calandra, M., & Mauri, F. (2017), 
  Density functional perturbation theory for gated two-dimensional heterostructu
 res:
  Theoretical developments and application to flexural phonons in graphene.
  Physical Review B, 96(7), 75448. https://doi.org/10.1103/PhysRevB.96.075448
 ----2D----2D----2D----2D----2D----2D----2D----2D----2D----2D----2D----2D

     Initial potential from superposition of free atoms

     starting charge    7.98607, renormalised to    8.00000

     negative rho (up, down):  1.082E-04 0.000E+00
     Starting wfcs are random

     total cpu time spent up to now is        0.1 secs

     Self-consistent Calculation

     iteration #  1     ecut=    50.00 Ry     beta= 0.70
     Davidson diagonalization with overlap
     ethr =  1.00E-02,  avg # of iterations = 11.5

     negative rho (up, down):  3.620E-07 0.000E+00

     total cpu time spent up to now is        0.6 secs

     total energy              =     -22.63080018 Ry
     estimated scf accuracy    <       0.35782587 Ry

     iteration #  2     ecut=    50.00 Ry     beta= 0.70
     Davidson diagonalization with overlap
     ethr =  4.47E-03,  avg # of iterations =  2.1

     total cpu time spent up to now is        0.7 secs

     total energy              =     -22.68406932 Ry
     estimated scf accuracy    <       0.00250040 Ry

     iteration #  3     ecut=    50.00 Ry     beta= 0.70
     Davidson diagonalization with overlap
     ethr =  3.13E-05,  avg # of iterations = 10.4

     total cpu time spent up to now is        1.0 secs

     total energy              =     -22.68542512 Ry
     estimated scf accuracy    <       0.00016388 Ry

     iteration #  4     ecut=    50.00 Ry     beta= 0.70
     Davidson diagonalization with overlap
     c_bands:  1 eigenvalues not converged
     ethr =  2.05E-06,  avg # of iterations =  6.5

     total cpu time spent up to now is        1.2 secs

     total energy              =     -22.68546180 Ry
     estimated scf accuracy    <       0.00000157 Ry

     iteration #  5     ecut=    50.00 Ry     beta= 0.70
     Davidson diagonalization with overlap
     ethr =  1.97E-08,  avg # of iterations =  3.8

     total cpu time spent up to now is        1.3 secs

     total energy              =     -22.68546414 Ry
     estimated scf accuracy    <       0.00000011 Ry

     iteration #  6     ecut=    50.00 Ry     beta= 0.70
     Davidson diagonalization with overlap
     ethr =  1.35E-09,  avg # of iterations =  2.1

     total cpu time spent up to now is        1.4 secs

     End of self-consistent calculation

          k = 0.0000 0.0000 0.0000 (  3799 PWs)   bands (ev):

   -25.2639 -13.0689  -6.2138  -1.0298  -0.2102   0.5616   0.9170   2.2408

          k = 0.0000 0.0770 0.0000 (  3775 PWs)   bands (ev):

   -25.1413 -12.9112  -6.6920  -6.5098  -0.8585  -0.0348   0.7373   1.0927

          k = 0.0000 0.1540 0.0000 (  3752 PWs)   bands (ev):

   -24.7742 -12.4413  -7.9790  -7.2567  -0.3437   0.4908   1.2646   1.6194

          k = 0.0000 0.2309 0.0000 (  3750 PWs)   bands (ev):

   -24.1649 -11.6675  -9.7636  -8.1771   0.5151   1.3650   2.1438   2.4957

          k = 0.0000 0.3079 0.0000 (  3738 PWs)   bands (ev):

   -23.3174 -11.7770 -10.6033  -9.0576   1.7162   2.5784   3.3744   3.7099

          k = 0.0000 0.3849 0.0000 (  3772 PWs)   bands (ev):

   -22.2378 -13.8394  -9.7926  -9.2850   2.7533   3.2556   4.2203   4.9552

          k = 0.0000 0.4619 0.0000 (  3780 PWs)   bands (ev):

   -20.9338 -15.8390 -10.3059  -7.8097   0.4446   5.1237   6.1042   6.8592

          k = 0.0000 0.5389 0.0000 (  3786 PWs)   bands (ev):

   -19.4190 -17.7127 -10.5689  -6.5371  -1.2811   7.0086   7.4498   8.3483

          k = 0.0667 0.1155 0.0000 (  3765 PWs)   bands (ev):

   -24.8965 -12.5977  -7.5055  -7.1038  -0.5152   0.3157   1.0888   1.4440

          k = 0.0667 0.1925 0.0000 (  3747 PWs)   bands (ev):

   -24.4083 -11.9753  -8.9283  -8.0468   0.1723   1.0158   1.7922   2.1457

          k = 0.0667 0.2694 0.0000 (  3742 PWs)   bands (ev):

   -23.6800 -11.0554 -10.7656  -9.0018   1.2032   2.0622   2.8475   3.1949

          k = 0.0667 0.3464 0.0000 (  3760 PWs)   bands (ev):

   -22.7167 -12.7754  -9.8589  -9.8317   2.5747   3.3856   4.0227   4.2541

          k = 0.0667 0.4234 0.0000 (  3768 PWs)   bands (ev):

   -21.5254 -14.7918 -10.4598  -8.4435   1.5447   4.2816   5.2296   6.0094

          k = 0.0667 0.5004 0.0000 (  3770 PWs)   bands (ev):

   -20.1164 -16.7214 -10.8502  -6.9852  -0.5508   6.3078   7.2992   7.6543

          k = 0.0667 0.5774 0.0000 (  3806 PWs)   bands (ev):

   -18.5095 -18.5085 -10.9830  -6.1890  -1.5703   7.5887   8.6308   8.7774

          k = 0.1333 0.2309 0.0000 (  3747 PWs)   bands (ev):

   -23.8012 -11.2060 -10.1319  -9.2956   1.0329   1.8892   2.6721   3.0215

          k = 0.1333 0.3079 0.0000 (  3763 PWs)   bands (ev):

   -22.9574 -11.7544 -10.3994 -10.1497   2.2354   3.1040   3.9038   4.2370

          k = 0.1333 0.3849 0.0000 (  3774 PWs)   bands (ev):

   -21.8831 -13.6512 -11.1835  -8.8390   2.5181   3.7757   4.6842   5.4861

          k = 0.1333 0.4619 0.0000 (  3775 PWs)   bands (ev):

   -20.5880 -15.5726 -11.7023  -7.3653   0.3449   5.6463   6.5675   7.4173

          k = 0.1333 0.5389 0.0000 (  3773 PWs)   bands (ev):

   -19.0878 -17.4038 -11.9646  -6.0671  -1.3282   7.8273   8.7074   9.0198

          k = 0.2000 0.3464 0.0000 (  3761 PWs)   bands (ev):

   -22.0027 -12.7990 -11.9192  -8.9741   2.9519   3.6068   4.4856   5.3111

          k = 0.2000 0.4234 0.0000 (  3768 PWs)   bands (ev):

   -20.8255 -14.3632 -12.8289  -7.5753   1.0151   5.3098   6.1729   7.0683

          k = 0.2000 0.5004 0.0000 (  3757 PWs)   bands (ev):

   -19.4399 -16.1481 -13.2548  -6.0977  -0.8249   7.3291   8.0010   9.1823

          k = 0.2000 0.5774 0.0000 (  3752 PWs)   bands (ev):

   -17.9306 -17.8034 -13.3899  -5.2297  -1.8235   8.8738   9.5437   9.7045

          k = 0.2667 0.4619 0.0000 (  3769 PWs)   bands (ev):

   -19.5580 -15.0562 -14.3806  -6.1281  -0.5640   7.1604   7.6989   8.9976

          k = 0.2667 0.5389 0.0000 (  3773 PWs)   bands (ev):

   -18.1095 -16.5028 -14.8996  -4.7205  -2.0320   8.0827   9.2810  10.7779

          k = 0.3333 0.5774 0.0000 (  3771 PWs)   bands (ev):

   -16.7768 -16.7768 -16.1916  -3.3359  -3.3359   7.7621  11.2228  11.2228

     the Fermi energy is    -3.2935 ev

!    total energy              =     -22.68546417 Ry
     estimated scf accuracy    <          3.6E-09 Ry
     smearing contrib. (-TS)   =      -0.00003668 Ry
     internal energy E=F+TS    =     -22.68542749 Ry

     The total energy is F=E-TS. E is the sum of the following terms:
     one-electron contribution =    -468.31585887 Ry
     hartree contribution      =     234.99721003 Ry
     xc contribution           =      -7.44051466 Ry
     ewald contribution        =     218.07373601 Ry

     convergence has been achieved in   6 iterations

     Forces acting on atoms (cartesian axes, Ry/au):

     atom    1 type  1   force =     0.00000000    0.00000000    0.00000000
     atom    2 type  1   force =    -0.00000000   -0.00000000    0.00000000

     Total force =     0.000000     Total SCF correction =     0.000000


     Computing stress (Cartesian axis) and pressure

          total   stress  (Ry/bohr**3)                   (kbar)     P=      156.57
   0.00166507  -0.00000000   0.00000000          244.94       -0.00        0.00
  -0.00000000   0.00166507  -0.00000000           -0.00      244.94       -0.00
   0.00000000  -0.00000000  -0.00013716            0.00       -0.00      -20.18


     BFGS Geometry Optimization
     Energy error            =      0.0E+00
     Gradient error          =      1.7E-26
     Cell gradient error     =      1.7E-03


     number of scf cycles    =   1
     number of bfgs steps    =   0

     enthalpy new            =     -22.6854641689 Ry

     new trust radius        =       0.2090553162 bohr
     new conv_thr            =       0.0000000100 Ry

     new unit-cell volume =    684.13470 a.u.^3 (   101.37830 Ang^3 )
     density =      0.39346 g/cm^3

CELL_PARAMETERS (alat=  4.24000000)
   1.041626753  -0.000000000   0.000000000
  -0.520813377   0.902075230   0.000000000
   0.000000000   0.000000000   9.551886792

ATOMIC_POSITIONS (crystal)
C             0.3333333333        0.6666666667        0.5000000000
C             0.6666666667        0.3333333333        0.5000000000



     Writing output data file ./work/LiC424.save/
     NEW-OLD atomic charge density approx. for the potential

     negative rho (up, down):  1.174E-04 0.000E+00
     extrapolated charge    8.62554, renormalised to    8.00000

     total cpu time spent up to now is        1.5 secs

     Self-consistent Calculation

     iteration #  1     ecut=    50.00 Ry     beta= 0.70
     Davidson diagonalization with overlap
     c_bands:  1 eigenvalues not converged
     c_bands:  1 eigenvalues not converged
     c_bands:  1 eigenvalues not converged
     c_bands:  3 eigenvalues not converged
     c_bands:  2 eigenvalues not converged
     c_bands:  4 eigenvalues not converged
     c_bands:  5 eigenvalues not converged
     c_bands:  4 eigenvalues not converged
     c_bands:  1 eigenvalues not converged
     c_bands:  2 eigenvalues not converged
     c_bands:  2 eigenvalues not converged
     c_bands:  4 eigenvalues not converged
     c_bands:  4 eigenvalues not converged
     c_bands:  5 eigenvalues not converged
     c_bands:  5 eigenvalues not converged
     c_bands:  2 eigenvalues not converged
     c_bands:  3 eigenvalues not converged
     c_bands:  4 eigenvalues not converged
     c_bands:  5 eigenvalues not converged
     c_bands:  5 eigenvalues not converged
     c_bands:  4 eigenvalues not converged
     c_bands:  5 eigenvalues not converged
     c_bands:  5 eigenvalues not converged
     ethr =  1.00E-06,  avg # of iterations = 22.6

     negative rho (up, down):  9.216E-06 0.000E+00

     total cpu time spent up to now is        2.4 secs

     total energy              =     688.35251161 Ry
     estimated scf accuracy    <     391.31805593 Ry

     iteration #  2     ecut=    50.00 Ry     beta= 0.70
     Davidson diagonalization with overlap
     c_bands:  2 eigenvalues not converged
     c_bands:  4 eigenvalues not converged
     c_bands:  3 eigenvalues not converged
     c_bands:  5 eigenvalues not converged
     c_bands:  2 eigenvalues not converged
     c_bands:  2 eigenvalues not converged
     c_bands:  4 eigenvalues not converged
     c_bands:  4 eigenvalues not converged
     c_bands:  4 eigenvalues not converged
     c_bands:  5 eigenvalues not converged
     ethr =  1.00E-02,  avg # of iterations = 39.3

     negative rho (up, down):  3.782E-06 0.000E+00

     total cpu time spent up to now is        3.9 secs

     total energy              =    -153.48389500 Ry
     estimated scf accuracy    <     199.03926438 Ry

     iteration #  3     ecut=    50.00 Ry     beta= 0.70
     Davidson diagonalization with overlap
     c_bands:  3 eigenvalues not converged
     ethr =  1.00E-02,  avg # of iterations =  5.9

     negative rho (up, down):  3.357E-07 0.000E+00

     total cpu time spent up to now is        4.1 secs

     total energy              =     -53.01309930 Ry
     estimated scf accuracy    <      68.81614444 Ry

     iteration #  4     ecut=    50.00 Ry     beta= 0.70
     Davidson diagonalization with overlap
     ethr =  1.00E-02,  avg # of iterations =  3.4

     negative rho (up, down):  5.864E-07 0.000E+00

     total cpu time spent up to now is        4.3 secs

     total energy              =     -52.49616816 Ry
     estimated scf accuracy    <      16.16795588 Ry

     iteration #  5     ecut=    50.00 Ry     beta= 0.70
     Davidson diagonalization with overlap
     ethr =  1.00E-02,  avg # of iterations =  1.0

     negative rho (up, down):  1.960E-08 0.000E+00

     total cpu time spent up to now is        4.4 secs

     total energy              =     -26.00572734 Ry
     estimated scf accuracy    <      15.72843612 Ry

     iteration #  6     ecut=    50.00 Ry     beta= 0.70
     Davidson diagonalization with overlap
     ethr =  1.00E-02,  avg # of iterations =  3.7

     negative rho (up, down):  4.452E-08 0.000E+00

     total cpu time spent up to now is        4.5 secs

     total energy              =     -30.54307321 Ry
     estimated scf accuracy    <       1.91683383 Ry

     iteration #  7     ecut=    50.00 Ry     beta= 0.70
     Davidson diagonalization with overlap
     ethr =  1.00E-02,  avg # of iterations =  1.0

     negative rho (up, down):  2.784E-08 0.000E+00

     total cpu time spent up to now is        4.6 secs

     total energy              =     -30.65457523 Ry
     estimated scf accuracy    <       4.10020954 Ry

     iteration #  8     ecut=    50.00 Ry     beta= 0.70
     Davidson diagonalization with overlap
     ethr =  1.00E-02,  avg # of iterations =  1.0

     negative rho (up, down):  3.919E-08 0.000E+00

     total cpu time spent up to now is        4.7 secs

     total energy              =     -27.92147337 Ry
     estimated scf accuracy    <       4.14857462 Ry

     iteration #  9     ecut=    50.00 Ry     beta= 0.70
     Davidson diagonalization with overlap
     ethr =  1.00E-02,  avg # of iterations =  1.0

     total cpu time spent up to now is        4.8 secs

     total energy              =     -22.69071925 Ry
     estimated scf accuracy    <       2.77870541 Ry

     iteration # 10     ecut=    50.00 Ry     beta= 0.70
     Davidson diagonalization with overlap
     ethr =  1.00E-02,  avg # of iterations =  3.0

     negative rho (up, down):  7.332E-07 0.000E+00

     total cpu time spent up to now is        5.0 secs

     total energy              =     -22.74224693 Ry
     estimated scf accuracy    <       0.04168616 Ry

     iteration # 11     ecut=    50.00 Ry     beta= 0.70
     Davidson diagonalization with overlap
     ethr =  5.21E-04,  avg # of iterations = 10.8

     negative rho (up, down):  3.983E-05 0.000E+00

     total cpu time spent up to now is        5.3 secs

     total energy              =     -22.74834825 Ry
     estimated scf accuracy    <       0.00592326 Ry

     iteration # 12     ecut=    50.00 Ry     beta= 0.70
     Davidson diagonalization with overlap
     ethr =  7.40E-05,  avg # of iterations =  3.3

     negative rho (up, down):  9.734E-05 0.000E+00

     total cpu time spent up to now is        5.4 secs

     total energy              =     -22.74916247 Ry
     estimated scf accuracy    <       0.00438951 Ry

     iteration # 13     ecut=    50.00 Ry     beta= 0.70
     Davidson diagonalization with overlap
     ethr =  5.49E-05,  avg # of iterations =  1.4

     negative rho (up, down):  8.593E-04 0.000E+00

     total cpu time spent up to now is        5.5 secs

     total energy              =     -22.75251311 Ry
     estimated scf accuracy    <       0.00476195 Ry

     iteration # 14     ecut=    50.00 Ry     beta= 0.70
     Davidson diagonalization with overlap
     ethr =  5.49E-05,  avg # of iterations =  2.8

     negative rho (up, down):  1.034E-03 0.000E+00

     total cpu time spent up to now is        5.6 secs

     total energy              =     -22.75265942 Ry
     estimated scf accuracy    <       0.00975628 Ry

     iteration # 15     ecut=    50.00 Ry     beta= 0.70
     Davidson diagonalization with overlap
     ethr =  5.49E-05,  avg # of iterations =  1.0

     negative rho (up, down):  1.040E-03 0.000E+00

     total cpu time spent up to now is        5.8 secs

     total energy              =     -22.75178022 Ry
     estimated scf accuracy    <       0.00856508 Ry

     iteration # 16     ecut=    50.00 Ry     beta= 0.70
     Davidson diagonalization with overlap
     ethr =  5.49E-05,  avg # of iterations =  1.0

     negative rho (up, down):  9.942E-04 0.000E+00

     total cpu time spent up to now is        5.9 secs

     total energy              =     -22.75117431 Ry
     estimated scf accuracy    <       0.00672788 Ry

     iteration # 17     ecut=    50.00 Ry     beta= 0.70
     Davidson diagonalization with overlap
     ethr =  5.49E-05,  avg # of iterations =  1.0

     negative rho (up, down):  8.892E-04 0.000E+00

     total cpu time spent up to now is        6.0 secs

     total energy              =     -22.75035725 Ry
     estimated scf accuracy    <       0.00553898 Ry

     iteration # 18     ecut=    50.00 Ry     beta= 0.70
     Davidson diagonalization with overlap
     ethr =  5.49E-05,  avg # of iterations =  1.2

     negative rho (up, down):  1.198E-05 0.000E+00

     total cpu time spent up to now is        6.1 secs

     total energy              =     -22.74845503 Ry
     estimated scf accuracy    <       0.00377775 Ry

     iteration # 19     ecut=    50.00 Ry     beta= 0.70
     Davidson diagonalization with overlap
     ethr =  4.72E-05,  avg # of iterations =  4.8

     negative rho (up, down):  1.008E-06 0.000E+00

     total cpu time spent up to now is        6.2 secs

     total energy              =     -22.74878879 Ry
     estimated scf accuracy    <       0.00015592 Ry

     iteration # 20     ecut=    50.00 Ry     beta= 0.70
     Davidson diagonalization with overlap
     c_bands:  1 eigenvalues not converged
     c_bands:  1 eigenvalues not converged
     ethr =  1.95E-06,  avg # of iterations =  8.7

     total cpu time spent up to now is        6.5 secs

     total energy              =     -22.74883331 Ry
     estimated scf accuracy    <       0.00003461 Ry

     iteration # 21     ecut=    50.00 Ry     beta= 0.70
     Davidson diagonalization with overlap
     ethr =  4.33E-07,  avg # of iterations =  3.1

     total cpu time spent up to now is        6.6 secs

     total energy              =     -22.74883604 Ry
     estimated scf accuracy    <       0.00000119 Ry

     iteration # 22     ecut=    50.00 Ry     beta= 0.70
     Davidson diagonalization with overlap
     ethr =  1.48E-08,  avg # of iterations =  2.1

     total cpu time spent up to now is        6.7 secs

     total energy              =     -22.74883638 Ry
     estimated scf accuracy    <       0.00000004 Ry

     iteration # 23     ecut=    50.00 Ry     beta= 0.70
     Davidson diagonalization with overlap
     ethr =  5.35E-10,  avg # of iterations =  2.5

     total cpu time spent up to now is        6.9 secs

     End of self-consistent calculation

          k = 0.0000 0.0000 0.0000 (  3799 PWs)   bands (ev):

   -24.6302 -12.5261  -6.7139  -6.7139  -1.0120  -0.2121   0.5618   0.9192

          k = 0.0000 0.0739 0.0000 (  3775 PWs)   bands (ev):

   -24.5152 -12.3825  -7.1653  -6.9740  -0.8538  -0.0507   0.7236   1.0810

          k = 0.0000 0.1478 0.0000 (  3752 PWs)   bands (ev):

   -24.1709 -11.9555  -8.3780  -7.6363  -0.3785   0.4330   1.2097   1.5657

          k = 0.0000 0.2217 0.0000 (  3750 PWs)   bands (ev):

   -23.5994 -11.2533 -10.0577  -8.4588   0.4137   1.2370   2.0199   2.3717

          k = 0.0000 0.2956 0.0000 (  3738 PWs)   bands (ev):

   -22.8045 -11.9504 -10.2889  -9.2484   1.5210   2.3479   3.1535   3.4704

          k = 0.0000 0.3695 0.0000 (  3772 PWs)   bands (ev):

   -21.7926 -13.8873  -9.9138  -9.0980   1.8294   2.9388   3.8444   4.6060

          k = 0.0000 0.4434 0.0000 (  3780 PWs)   bands (ev):

   -20.5726 -15.7603 -10.3785  -7.7730  -0.2331   4.6417   5.4184   5.5899

          k = 0.0000 0.5173 0.0000 (  3786 PWs)   bands (ev):

   -19.1754 -17.4940 -10.6167  -6.6457  -1.7548   5.2858   6.7243   7.6471

          k = 0.0640 0.1109 0.0000 (  3765 PWs)   bands (ev):

   -24.2856 -12.0977  -7.9377  -7.5003  -0.5369   0.2718   1.0477   1.4042

          k = 0.0640 0.1848 0.0000 (  3747 PWs)   bands (ev):

   -23.8277 -11.5325  -9.2805  -8.3446   0.0974   0.9159   1.6960   2.0499

          k = 0.0640 0.2587 0.0000 (  3742 PWs)   bands (ev):

   -23.1445 -11.0060 -10.6983  -9.2089   1.0480   1.8778   2.6683   3.0139

          k = 0.0640 0.3326 0.0000 (  3760 PWs)   bands (ev):

   -22.2414 -12.8919  -9.9644  -9.6155   2.3120   2.7814   3.2611   3.9635

          k = 0.0640 0.4065 0.0000 (  3768 PWs)   bands (ev):

   -21.1255 -14.7810 -10.5369  -8.3398   0.7317   3.8828   4.7844   5.5673

          k = 0.0640 0.4804 0.0000 (  3770 PWs)   bands (ev):

   -19.8116 -16.5819 -10.8934  -7.0371  -1.1241   5.6484   5.9585   6.6840

          k = 0.0640 0.5543 0.0000 (  3806 PWs)   bands (ev):

   -18.5416 -18.0221 -11.0150  -6.3380  -2.0177   5.7794   7.8701   8.0163

          k = 0.1280 0.2217 0.0000 (  3747 PWs)   bands (ev):

   -23.2582 -10.8346 -10.4421  -9.4639   0.8907   1.7192   2.5067   2.8556

          k = 0.1280 0.2956 0.0000 (  3763 PWs)   bands (ev):

   -22.4670 -11.9636 -10.4838  -9.8780   1.9990   2.8319   3.5568   3.6413

          k = 0.1280 0.3695 0.0000 (  3774 PWs)   bands (ev):

   -21.4603 -13.7261 -11.2235  -8.6942   1.5613   3.4181   4.2819   5.0987

          k = 0.1280 0.4434 0.0000 (  3775 PWs)   bands (ev):

   -20.2496 -15.5150 -11.7098  -7.3705  -0.3652   5.1393   6.0090   6.8667

          k = 0.1280 0.5173 0.0000 (  3773 PWs)   bands (ev):

   -18.8709 -17.2000 -11.9553  -6.2185  -1.8393   7.0407   7.2623   7.9451

          k = 0.1920 0.3326 0.0000 (  3761 PWs)   bands (ev):

   -21.5723 -13.0039 -11.8449  -8.8154   1.9184   3.2623   4.1037   4.9378

          k = 0.1920 0.4065 0.0000 (  3768 PWs)   bands (ev):

   -20.4710 -14.4324 -12.7321  -7.5553   0.1896   4.8303   5.6460   6.5560

          k = 0.1920 0.4804 0.0000 (  3757 PWs)   bands (ev):

   -19.1835 -16.0598 -13.1637  -6.2326  -1.4447   6.6860   7.2920   8.4920

          k = 0.1920 0.5543 0.0000 (  3752 PWs)   bands (ev):

   -17.9750 -17.3953 -13.2983  -5.4660  -2.3234   8.0544   8.6961   8.8227

          k = 0.2560 0.4434 0.0000 (  3769 PWs)   bands (ev):

   -19.2908 -15.1828 -14.0841  -6.2546  -1.2415   6.5313   7.0209   8.3086

          k = 0.2560 0.5173 0.0000 (  3773 PWs)   bands (ev):

   -17.9747 -16.4197 -14.6516  -4.9963  -2.5584   7.3899   8.4664   9.9330

          k = 0.3200 0.5543 0.0000 (  3771 PWs)   bands (ev):

   -16.8510 -16.8510 -15.5655  -3.7479  -3.7479   7.1282  10.1324  10.1327

     the Fermi energy is    -3.7479 ev

!    total energy              =     -22.74883639 Ry
     estimated scf accuracy    <          2.9E-09 Ry
     smearing contrib. (-TS)   =      -0.00005015 Ry
     internal energy E=F+TS    =     -22.74878624 Ry

     The total energy is F=E-TS. E is the sum of the following terms:
     one-electron contribution =    -431.12858021 Ry
     hartree contribution      =     216.30260990 Ry
     xc contribution           =      -7.24839298 Ry
     ewald contribution        =     199.32557704 Ry

     convergence has been achieved in  23 iterations

     Forces acting on atoms (cartesian axes, Ry/au):

     atom    1 type  1   force =     0.00000000    0.00000000    0.00000000
     atom    2 type  1   force =     0.00000000    0.00000000    0.00000000

     Total force =     0.000000     Total SCF correction =     0.000000


     Computing stress (Cartesian axis) and pressure

          total   stress  (Ry/bohr**3)                   (kbar)     P=       60.60
   0.00068761   0.00000000  -0.00000000          101.15        0.00       -0.00
   0.00000000   0.00068761   0.00000000            0.00      101.15        0.00
   0.00000000   0.00000000  -0.00013939            0.00        0.00      -20.51

     Energy error            =      6.3E-02
     Gradient error          =      0.0E+00
     Cell gradient error     =      6.9E-04


     number of scf cycles    =   2
     number of bfgs steps    =   1

     enthalpy old            =     -22.6854641689 Ry
     enthalpy new            =     -22.7488363879 Ry

     CASE: enthalpy_new < enthalpy_old

     new trust radius        =       0.1578058669 bohr
     new conv_thr            =            1.0E-10 Ry

     new unit-cell volume =    726.03292 a.u.^3 (   107.58698 Ang^3 )
     density =      0.37076 g/cm^3

CELL_PARAMETERS (alat=  4.24000000)
   1.073048800   0.000000000   0.000000000
  -0.536524400   0.929287521   0.000000000
   0.000000000   0.000000000   9.551886792

ATOMIC_POSITIONS (crystal)
C             0.3333333333        0.6666666667        0.5000000000
C             0.6666666667        0.3333333333        0.5000000000



     Writing output data file ./work/LiC424.save/
     NEW-OLD atomic charge density approx. for the potential

     negative rho (up, down):  5.817E-05 0.000E+00
     extrapolated charge    8.46086, renormalised to    8.00000

     total cpu time spent up to now is        6.9 secs

     Self-consistent Calculation

     iteration #  1     ecut=    50.00 Ry     beta= 0.70
     Davidson diagonalization with overlap
     c_bands:  1 eigenvalues not converged
     c_bands:  1 eigenvalues not converged
     c_bands:  1 eigenvalues not converged
     c_bands:  2 eigenvalues not converged
     c_bands:  3 eigenvalues not converged
     c_bands:  3 eigenvalues not converged
     c_bands:  1 eigenvalues not converged
     c_bands:  2 eigenvalues not converged
     c_bands:  1 eigenvalues not converged
     c_bands:  2 eigenvalues not converged
     c_bands:  4 eigenvalues not converged
     c_bands:  4 eigenvalues not converged
     c_bands:  2 eigenvalues not converged
     c_bands:  2 eigenvalues not converged
     c_bands:  3 eigenvalues not converged
     c_bands:  4 eigenvalues not converged
     c_bands:  5 eigenvalues not converged
     c_bands:  2 eigenvalues not converged
     c_bands:  4 eigenvalues not converged
     c_bands:  4 eigenvalues not converged
     c_bands:  5 eigenvalues not converged
     c_bands:  4 eigenvalues not converged
     c_bands:  5 eigenvalues not converged
     ethr =  1.00E-06,  avg # of iterations = 20.2

     negative rho (up, down):  1.328E-06 0.000E+00

     total cpu time spent up to now is        7.7 secs

     total energy              =     618.11073615 Ry
     estimated scf accuracy    <     355.88534889 Ry

     iteration #  2     ecut=    50.00 Ry     beta= 0.70
     Davidson diagonalization with overlap
     c_bands:  1 eigenvalues not converged
     c_bands:  2 eigenvalues not converged
     c_bands:  2 eigenvalues not converged
     c_bands:  3 eigenvalues not converged
     c_bands:  5 eigenvalues not converged
     c_bands:  3 eigenvalues not converged
     c_bands:  2 eigenvalues not converged
     c_bands:  1 eigenvalues not converged
     c_bands:  2 eigenvalues not converged
     c_bands:  2 eigenvalues not converged
     ethr =  1.00E-02,  avg # of iterations = 37.6

     negative rho (up, down):  3.514E-07 0.000E+00

     total cpu time spent up to now is        9.2 secs

     total energy              =    -140.67350043 Ry
     estimated scf accuracy    <     181.34276141 Ry

     iteration #  3     ecut=    50.00 Ry     beta= 0.70
     Davidson diagonalization with overlap
     ethr =  1.00E-02,  avg # of iterations =  4.6

     negative rho (up, down):  1.208E-08 0.000E+00

     total cpu time spent up to now is        9.3 secs

     total energy              =     -49.61045874 Ry
     estimated scf accuracy    <      62.70951123 Ry

     iteration #  4     ecut=    50.00 Ry     beta= 0.70
     Davidson diagonalization with overlap
     ethr =  1.00E-02,  avg # of iterations =  3.7

     negative rho (up, down):  1.573E-08 0.000E+00

     total cpu time spent up to now is        9.5 secs

     total energy              =     -50.68031810 Ry
     estimated scf accuracy    <      14.52570049 Ry

     iteration #  5     ecut=    50.00 Ry     beta= 0.70
     Davidson diagonalization with overlap
     ethr =  1.00E-02,  avg # of iterations =  1.3

     total cpu time spent up to now is        9.6 secs

     total energy              =     -25.50532306 Ry
     estimated scf accuracy    <      14.81088845 Ry

     iteration #  6     ecut=    50.00 Ry     beta= 0.70
     Davidson diagonalization with overlap
     ethr =  1.00E-02,  avg # of iterations =  4.0

     total cpu time spent up to now is        9.8 secs

     total energy              =     -31.01120985 Ry
     estimated scf accuracy    <       1.63551198 Ry

     iteration #  7     ecut=    50.00 Ry     beta= 0.70
     Davidson diagonalization with overlap
     ethr =  1.00E-02,  avg # of iterations =  1.0

     total cpu time spent up to now is        9.9 secs

     total energy              =     -28.83123281 Ry
     estimated scf accuracy    <       4.39877352 Ry

     iteration #  8     ecut=    50.00 Ry     beta= 0.70
     Davidson diagonalization with overlap
     ethr =  1.00E-02,  avg # of iterations =  1.4

     total cpu time spent up to now is       10.0 secs

     total energy              =     -29.26588980 Ry
     estimated scf accuracy    <       3.26396104 Ry

     iteration #  9     ecut=    50.00 Ry     beta= 0.70
     Davidson diagonalization with overlap
     ethr =  1.00E-02,  avg # of iterations =  1.0

     total cpu time spent up to now is       10.1 secs

     total energy              =     -22.61720980 Ry
     estimated scf accuracy    <       3.47806324 Ry

     iteration # 10     ecut=    50.00 Ry     beta= 0.70
     Davidson diagonalization with overlap
     ethr =  1.00E-02,  avg # of iterations =  3.7

     total cpu time spent up to now is       10.2 secs

     total energy              =     -22.76651840 Ry
     estimated scf accuracy    <       0.01394691 Ry

     iteration # 11     ecut=    50.00 Ry     beta= 0.70
     Davidson diagonalization with overlap
     ethr =  1.74E-04,  avg # of iterations = 11.7

     total cpu time spent up to now is       10.5 secs

     total energy              =     -22.76973739 Ry
     estimated scf accuracy    <       0.01240297 Ry

     iteration # 12     ecut=    50.00 Ry     beta= 0.70
     Davidson diagonalization with overlap
     ethr =  1.55E-04,  avg # of iterations =  1.0

     total cpu time spent up to now is       10.6 secs

     total energy              =     -22.76778137 Ry
     estimated scf accuracy    <       0.01583615 Ry

     iteration # 13     ecut=    50.00 Ry     beta= 0.70
     Davidson diagonalization with overlap
     ethr =  1.55E-04,  avg # of iterations =  1.0

     negative rho (up, down):  2.573E-04 0.000E+00

     total cpu time spent up to now is       10.7 secs

     total energy              =     -22.77220598 Ry
     estimated scf accuracy    <       0.00917299 Ry

     iteration # 14     ecut=    50.00 Ry     beta= 0.70
     Davidson diagonalization with overlap
     ethr =  1.15E-04,  avg # of iterations =  4.3

     negative rho (up, down):  4.279E-04 0.000E+00

     total cpu time spent up to now is       10.9 secs

     total energy              =     -22.79667349 Ry
     estimated scf accuracy    <       0.03364424 Ry

     iteration # 15     ecut=    50.00 Ry     beta= 0.70
     Davidson diagonalization with overlap
     ethr =  1.15E-04,  avg # of iterations =  2.6

     negative rho (up, down):  4.408E-04 0.000E+00

     total cpu time spent up to now is       11.0 secs

     total energy              =     -22.79791048 Ry
     estimated scf accuracy    <       0.07299052 Ry

     iteration # 16     ecut=    50.00 Ry     beta= 0.70
     Davidson diagonalization with overlap
     ethr =  1.15E-04,  avg # of iterations =  1.3

     negative rho (up, down):  8.473E-03 0.000E+00

     total cpu time spent up to now is       11.1 secs

     total energy              =     -22.77957189 Ry
     estimated scf accuracy    <       0.07248129 Ry

     iteration # 17     ecut=    50.00 Ry     beta= 0.70
     Davidson diagonalization with overlap
     ethr =  1.15E-04,  avg # of iterations =  2.0

     negative rho (up, down):  2.701E-03 0.000E+00

     total cpu time spent up to now is       11.3 secs

     total energy              =     -22.76761922 Ry
     estimated scf accuracy    <       0.03357080 Ry

     iteration # 18     ecut=    50.00 Ry     beta= 0.70
     Davidson diagonalization with overlap
     ethr =  1.15E-04,  avg # of iterations =  2.4

     negative rho (up, down):  1.122E-03 0.000E+00

     total cpu time spent up to now is       11.4 secs

     total energy              =     -22.76623956 Ry
     estimated scf accuracy    <       0.00826437 Ry

     iteration # 19     ecut=    50.00 Ry     beta= 0.70
     Davidson diagonalization with overlap
     ethr =  1.03E-04,  avg # of iterations =  2.5

     total cpu time spent up to now is       11.5 secs

     total energy              =     -22.76532369 Ry
     estimated scf accuracy    <       0.00241765 Ry

     iteration # 20     ecut=    50.00 Ry     beta= 0.70
     Davidson diagonalization with overlap
     ethr =  3.02E-05,  avg # of iterations =  6.9

     total cpu time spent up to now is       11.7 secs

     total energy              =     -22.76549879 Ry
     estimated scf accuracy    <       0.00012874 Ry

     iteration # 21     ecut=    50.00 Ry     beta= 0.70
     Davidson diagonalization with overlap
     c_bands:  1 eigenvalues not converged
     ethr =  1.61E-06,  avg # of iterations =  7.7

     negative rho (up, down):  1.019E-06 0.000E+00

     total cpu time spent up to now is       11.9 secs

     total energy              =     -22.76553403 Ry
     estimated scf accuracy    <       0.00000136 Ry

     iteration # 22     ecut=    50.00 Ry     beta= 0.70
     Davidson diagonalization with overlap
     ethr =  1.70E-08,  avg # of iterations =  3.5

     total cpu time spent up to now is       12.1 secs

     total energy              =     -22.76553509 Ry
     estimated scf accuracy    <       0.00000069 Ry

     iteration # 23     ecut=    50.00 Ry     beta= 0.70
     Davidson diagonalization with overlap
     ethr =  8.67E-09,  avg # of iterations =  2.0

     total cpu time spent up to now is       12.2 secs

     total energy              =     -22.76553513 Ry
     estimated scf accuracy    <       0.00000004 Ry

     iteration # 24     ecut=    50.00 Ry     beta= 0.70
     Davidson diagonalization with overlap
     ethr =  4.45E-10,  avg # of iterations =  2.3

     total cpu time spent up to now is       12.3 secs

     total energy              =     -22.76553514 Ry
     estimated scf accuracy    <          2.0E-10 Ry

     iteration # 25     ecut=    50.00 Ry     beta= 0.70
     Davidson diagonalization with overlap
     ethr =  2.53E-12,  avg # of iterations =  3.8

     total cpu time spent up to now is       12.5 secs

     End of self-consistent calculation

          k = 0.0000 0.0000 0.0000 (  3799 PWs)   bands (ev):

   -24.1839 -12.1633  -7.0379  -7.0379  -0.9979  -0.2130   0.5626   0.9210

          k =-0.0000 0.0717 0.0000 (  3775 PWs)   bands (ev):

   -24.0744 -12.0293  -7.4732  -7.2744  -0.8485  -0.0611   0.7152   1.0732

          k =-0.0000 0.1435 0.0000 (  3752 PWs)   bands (ev):

   -23.7465 -11.6317  -8.6393  -7.8807  -0.4001   0.3940   1.1732   1.5294

          k =-0.0000 0.2152 0.0000 (  3750 PWs)   bands (ev):

   -23.2023 -10.9783 -10.2502  -8.6378   0.3469   1.1501   1.9365   2.2874

          k =-0.0000 0.2870 0.0000 (  3738 PWs)   bands (ev):

   -22.4458 -12.0602 -10.0819  -9.3663   1.3907   2.1865   3.0040   3.1619

          k =-0.0000 0.3587 0.0000 (  3772 PWs)   bands (ev):

   -21.4843 -13.9083  -9.9854  -8.9776   1.1792   2.7250   3.5946   4.2925

          k =-0.0000 0.4304 0.0000 (  3780 PWs)   bands (ev):

   -20.3292 -15.6871 -10.4176  -7.7545  -0.7089   4.0924   4.4383   5.2397

          k =-0.0000 0.5022 0.0000 (  3786 PWs)   bands (ev):

   -19.0398 -17.2976 -10.6391  -6.7244  -2.0932   4.0553   6.2820   7.1682

          k = 0.0621 0.1076 0.0000 (  3765 PWs)   bands (ev):

   -23.8557 -11.7641  -8.2204  -7.7560  -0.5496   0.2423   1.0206   1.3774

          k = 0.0621 0.1793 0.0000 (  3747 PWs)   bands (ev):

   -23.4197 -11.2380  -9.5123  -8.5337   0.0486   0.8483   1.6314   1.9849

          k = 0.0621 0.2511 0.0000 (  3742 PWs)   bands (ev):

   -22.7693 -11.1636 -10.4622  -9.3361   0.9447   1.7522   2.5473   2.8898

          k = 0.0621 0.3228 0.0000 (  3760 PWs)   bands (ev):

   -21.9104 -12.9634 -10.0413  -9.4568   2.0857   2.1358   2.9999   3.7665

          k = 0.0621 0.3946 0.0000 (  3768 PWs)   bands (ev):

   -20.8514 -14.7605 -10.5764  -8.2761   0.1645   3.6118   4.4821   4.7392

          k = 0.0621 0.4663 0.0000 (  3770 PWs)   bands (ev):

   -19.6151 -16.4607 -10.9102  -7.0783  -1.5288   4.5681   5.4159   6.2646

          k = 0.0621 0.5380 0.0000 (  3806 PWs)   bands (ev):

   -18.5391 -17.7000 -11.0243  -6.4435  -2.3385   4.5285   7.3555   7.5088

          k = 0.1243 0.2152 0.0000 (  3747 PWs)   bands (ev):

   -22.8775 -10.6463 -10.5888  -9.5657   0.7963   1.6039   2.3952   2.7429

          k = 0.1243 0.2870 0.0000 (  3763 PWs)   bands (ev):

   -22.1249 -12.1028 -10.5237  -9.7001   1.8407   2.6122   2.7594   3.4640

          k = 0.1243 0.3587 0.0000 (  3774 PWs)   bands (ev):

   -21.1683 -13.7727 -11.2305  -8.6026   0.8992   3.1775   4.0096   4.8360

          k = 0.1243 0.4304 0.0000 (  3775 PWs)   bands (ev):

   -20.0226 -15.4635 -11.6946  -7.3805  -0.8600   4.7954   5.6287   5.9607

          k = 0.1243 0.5022 0.0000 (  3773 PWs)   bands (ev):

   -18.7507 -17.0244 -11.9289  -6.3264  -2.2008   5.8433   6.7074   7.4239

          k = 0.1864 0.3228 0.0000 (  3761 PWs)   bands (ev):

   -21.2744 -13.1354 -11.7778  -8.7145   1.2090   3.0307   3.8441   4.6851

          k = 0.1864 0.3946 0.0000 (  3768 PWs)   bands (ev):

   -20.2302 -14.4813 -12.6336  -7.5485  -0.3790   4.5069   5.2877   6.2085

          k = 0.1864 0.4663 0.0000 (  3757 PWs)   bands (ev):

   -19.0202 -15.9930 -13.0659  -6.3303  -1.8753   6.2498   6.8107   7.6854

          k = 0.1864 0.5380 0.0000 (  3752 PWs)   bands (ev):

   -17.9829 -17.1432 -13.2004  -5.6311  -2.6744   7.5032   7.6164   8.1173

          k = 0.2485 0.4304 0.0000 (  3769 PWs)   bands (ev):

   -19.1166 -15.2565 -13.8553  -6.3470  -1.7080   6.1055   6.5614   7.8789

          k = 0.2485 0.5022 0.0000 (  3773 PWs)   bands (ev):

   -17.9033 -16.3754 -14.4177  -5.1891  -2.9227   6.9212   7.9086   9.3596

          k = 0.3106 0.5380 0.0000 (  3771 PWs)   bands (ev):

   -16.8836 -16.8836 -15.1417  -4.0330  -4.0330   6.6978   9.3368   9.3368

     the Fermi energy is    -4.0330 ev

!    total energy              =     -22.76553514 Ry
     estimated scf accuracy    <          5.0E-12 Ry
     smearing contrib. (-TS)   =      -0.00005015 Ry
     internal energy E=F+TS    =     -22.76548499 Ry

     The total energy is F=E-TS. E is the sum of the following terms:
     one-electron contribution =    -405.91752291 Ry
     hartree contribution      =     203.62785873 Ry
     xc contribution           =      -7.11320825 Ry
     ewald contribution        =     186.63738744 Ry

     convergence has been achieved in  25 iterations

     Forces acting on atoms (cartesian axes, Ry/au):

     atom    1 type  1   force =     0.00000000    0.00000000    0.00000000
     atom    2 type  1   force =    -0.00000000   -0.00000000    0.00000000

     Total force =     0.000000     Total SCF correction =     0.000000


     Computing stress (Cartesian axis) and pressure

          total   stress  (Ry/bohr**3)                   (kbar)     P=        6.38
   0.00013553  -0.00000000  -0.00000000           19.94       -0.00       -0.00
  -0.00000000   0.00013553  -0.00000000           -0.00       19.94       -0.00
   0.00000000   0.00000000  -0.00014100            0.00        0.00      -20.74

     Energy error            =      1.7E-02
     Gradient error          =      1.6E-26
     Cell gradient error     =      1.4E-04


     number of scf cycles    =   3
     number of bfgs steps    =   2

     enthalpy old            =     -22.7488363879 Ry
     enthalpy new            =     -22.7655351418 Ry

     CASE: enthalpy_new < enthalpy_old

     new trust radius        =       0.0402077576 bohr
     new conv_thr            =            1.0E-10 Ry

     new unit-cell volume =    736.90732 a.u.^3 (   109.19840 Ang^3 )
     density =      0.36528 g/cm^3

CELL_PARAMETERS (alat=  4.24000000)
   1.081054903   0.000000000   0.000000000
  -0.540527452   0.936221009   0.000000000
   0.000000000   0.000000000   9.551886792

ATOMIC_POSITIONS (crystal)
C             0.3333333333        0.6666666667        0.5000000000
C             0.6666666667        0.3333333333        0.5000000000



     Writing output data file ./work/LiC424.save/
     NEW-OLD atomic charge density approx. for the potential

     negative rho (up, down):  8.010E-06 0.000E+00
     extrapolated charge    8.11785, renormalised to    8.00000

     total cpu time spent up to now is       12.5 secs

     Self-consistent Calculation

     iteration #  1     ecut=    50.00 Ry     beta= 0.70
     Davidson diagonalization with overlap
     c_bands:  1 eigenvalues not converged
     c_bands:  1 eigenvalues not converged
     c_bands:  1 eigenvalues not converged
     c_bands:  1 eigenvalues not converged
     c_bands:  1 eigenvalues not converged
     ethr =  1.00E-06,  avg # of iterations = 13.3

     total cpu time spent up to now is       12.9 secs

     total energy              =      22.99557465 Ry
     estimated scf accuracy    <      26.30946820 Ry

     iteration #  2     ecut=    50.00 Ry     beta= 0.70
     Davidson diagonalization with overlap
     c_bands:  1 eigenvalues not converged
     c_bands:  2 eigenvalues not converged
     c_bands:  1 eigenvalues not converged
     c_bands:  1 eigenvalues not converged
     c_bands:  1 eigenvalues not converged
     ethr =  1.00E-02,  avg # of iterations = 16.2

     total cpu time spent up to now is       13.3 secs

     total energy              =     -31.03363232 Ry
     estimated scf accuracy    <      13.98800737 Ry

     iteration #  3     ecut=    50.00 Ry     beta= 0.70
     Davidson diagonalization with overlap
     ethr =  1.00E-02,  avg # of iterations =  2.0

     total cpu time spent up to now is       13.4 secs

     total energy              =     -25.90145105 Ry
     estimated scf accuracy    <       4.72623045 Ry

     iteration #  4     ecut=    50.00 Ry     beta= 0.70
     Davidson diagonalization with overlap
     ethr =  1.00E-02,  avg # of iterations =  1.9

     total cpu time spent up to now is       13.6 secs

     total energy              =     -24.32387906 Ry
     estimated scf accuracy    <       1.79121763 Ry

     iteration #  5     ecut=    50.00 Ry     beta= 0.70
     Davidson diagonalization with overlap
     ethr =  1.00E-02,  avg # of iterations =  1.4

     total cpu time spent up to now is       13.7 secs

     total energy              =     -23.19449115 Ry
     estimated scf accuracy    <       0.90889481 Ry

     iteration #  6     ecut=    50.00 Ry     beta= 0.70
     Davidson diagonalization with overlap
     ethr =  1.00E-02,  avg # of iterations =  2.1

     total cpu time spent up to now is       13.8 secs

     total energy              =     -23.38416455 Ry
     estimated scf accuracy    <       0.26232933 Ry

     iteration #  7     ecut=    50.00 Ry     beta= 0.70
     Davidson diagonalization with overlap
     ethr =  3.28E-03,  avg # of iterations =  2.2

     total cpu time spent up to now is       13.9 secs

     total energy              =     -23.46977936 Ry
     estimated scf accuracy    <       0.35896186 Ry

     iteration #  8     ecut=    50.00 Ry     beta= 0.70
     Davidson diagonalization with overlap
     ethr =  3.28E-03,  avg # of iterations =  1.4

     total cpu time spent up to now is       14.0 secs

     total energy              =     -23.25805606 Ry
     estimated scf accuracy    <       0.41181860 Ry

     iteration #  9     ecut=    50.00 Ry     beta= 0.70
     Davidson diagonalization with overlap
     ethr =  3.28E-03,  avg # of iterations =  1.1

     total cpu time spent up to now is       14.1 secs

     total energy              =     -23.85096476 Ry
     estimated scf accuracy    <       0.28016276 Ry

     iteration # 10     ecut=    50.00 Ry     beta= 0.70
     Davidson diagonalization with overlap
     ethr =  3.28E-03,  avg # of iterations =  1.0

     negative rho (up, down):  5.734E-04 0.000E+00

     total cpu time spent up to now is       14.3 secs

     total energy              =     -22.74618280 Ry
     estimated scf accuracy    <       0.61031941 Ry

     iteration # 11     ecut=    50.00 Ry     beta= 0.70
     Davidson diagonalization with overlap
     ethr =  3.28E-03,  avg # of iterations =  6.4

     negative rho (up, down):  3.899E-05 0.000E+00

     total cpu time spent up to now is       14.4 secs

     total energy              =     -22.77289784 Ry
     estimated scf accuracy    <       0.00358227 Ry

     iteration # 12     ecut=    50.00 Ry     beta= 0.70
     Davidson diagonalization with overlap
     c_bands:  1 eigenvalues not converged
     ethr =  4.48E-05,  avg # of iterations = 10.4

     total cpu time spent up to now is       14.7 secs

     total energy              =     -22.78681960 Ry
     estimated scf accuracy    <       0.02182356 Ry

     iteration # 13     ecut=    50.00 Ry     beta= 0.70
     Davidson diagonalization with overlap
     ethr =  4.48E-05,  avg # of iterations =  3.4

     total cpu time spent up to now is       14.9 secs

     total energy              =     -22.77770031 Ry
     estimated scf accuracy    <       0.04637796 Ry

     iteration # 14     ecut=    50.00 Ry     beta= 0.70
     Davidson diagonalization with overlap
     ethr =  4.48E-05,  avg # of iterations =  3.0

     total cpu time spent up to now is       15.0 secs

     total energy              =     -22.76704330 Ry
     estimated scf accuracy    <       0.02584175 Ry

     iteration # 15     ecut=    50.00 Ry     beta= 0.70
     Davidson diagonalization with overlap
     ethr =  4.48E-05,  avg # of iterations =  3.0

     negative rho (up, down):  8.977E-07 0.000E+00

     total cpu time spent up to now is       15.1 secs

     total energy              =     -22.76679532 Ry
     estimated scf accuracy    <       0.00480980 Ry

     iteration # 16     ecut=    50.00 Ry     beta= 0.70
     Davidson diagonalization with overlap
     ethr =  4.48E-05,  avg # of iterations =  3.9

     negative rho (up, down):  5.126E-06 0.000E+00

     total cpu time spent up to now is       15.3 secs

     total energy              =     -22.76697086 Ry
     estimated scf accuracy    <       0.00138110 Ry

     iteration # 17     ecut=    50.00 Ry     beta= 0.70
     Davidson diagonalization with overlap
     ethr =  1.73E-05,  avg # of iterations =  1.2

     negative rho (up, down):  9.434E-06 0.000E+00

     total cpu time spent up to now is       15.4 secs

     total energy              =     -22.76733324 Ry
     estimated scf accuracy    <       0.00145175 Ry

     iteration # 18     ecut=    50.00 Ry     beta= 0.70
     Davidson diagonalization with overlap
     ethr =  1.73E-05,  avg # of iterations =  1.1

     negative rho (up, down):  8.358E-06 0.000E+00

     total cpu time spent up to now is       15.5 secs

     total energy              =     -22.76601305 Ry
     estimated scf accuracy    <       0.00225705 Ry

     iteration # 19     ecut=    50.00 Ry     beta= 0.70
     Davidson diagonalization with overlap
     c_bands:  1 eigenvalues not converged
     ethr =  1.73E-05,  avg # of iterations =  4.7

     total cpu time spent up to now is       15.7 secs

     total energy              =     -22.76634848 Ry
     estimated scf accuracy    <       0.00000276 Ry

     iteration # 20     ecut=    50.00 Ry     beta= 0.70
     Davidson diagonalization with overlap
     ethr =  3.45E-08,  avg # of iterations =  7.3

     total cpu time spent up to now is       15.9 secs

     total energy              =     -22.76635112 Ry
     estimated scf accuracy    <       0.00000071 Ry

     iteration # 21     ecut=    50.00 Ry     beta= 0.70
     Davidson diagonalization with overlap
     ethr =  8.87E-09,  avg # of iterations =  4.1

     total cpu time spent up to now is       16.0 secs

     total energy              =     -22.76635126 Ry
     estimated scf accuracy    <       0.00000006 Ry

     iteration # 22     ecut=    50.00 Ry     beta= 0.70
     Davidson diagonalization with overlap
     ethr =  7.57E-10,  avg # of iterations =  1.7

     total cpu time spent up to now is       16.1 secs

     total energy              =     -22.76635128 Ry
     estimated scf accuracy    <          2.0E-09 Ry

     iteration # 23     ecut=    50.00 Ry     beta= 0.70
     Davidson diagonalization with overlap
     ethr =  2.48E-11,  avg # of iterations =  3.4

     total cpu time spent up to now is       16.3 secs

     total energy              =     -22.76635128 Ry
     estimated scf accuracy    <          1.8E-10 Ry

     iteration # 24     ecut=    50.00 Ry     beta= 0.70
     Davidson diagonalization with overlap
     ethr =  2.22E-12,  avg # of iterations =  1.9

     total cpu time spent up to now is       16.4 secs

     End of self-consistent calculation

          k = 0.0000 0.0000 0.0000 (  3799 PWs)   bands (ev):

   -24.0725 -12.0754  -7.1115  -7.1115  -0.9942  -0.2133   0.5628   0.9213

          k =-0.0000 0.0712 0.0000 (  3775 PWs)   bands (ev):

   -23.9642 -11.9437  -7.5432  -7.3423  -0.8470  -0.0637   0.7131   1.0712

          k =-0.0000 0.1424 0.0000 (  3752 PWs)   bands (ev):

   -23.6404 -11.5532  -8.6987  -7.9353  -0.4050   0.3845   1.1644   1.5205

          k =-0.0000 0.2136 0.0000 (  3750 PWs)   bands (ev):

   -23.1029 -10.9116 -10.2934  -8.6768   0.3312   1.1292   1.9164   2.2669

          k =-0.0000 0.2848 0.0000 (  3738 PWs)   bands (ev):

   -22.3560 -12.0836 -10.0315  -9.3907   1.3597   2.1457   2.9678   2.9978

          k =-0.0000 0.3560 0.0000 (  3772 PWs)   bands (ev):

   -21.4071 -13.9099  -9.9988  -8.9481   1.0215   2.6736   3.5348   4.0561

          k =-0.0000 0.4272 0.0000 (  3780 PWs)   bands (ev):

   -20.2686 -15.6651 -10.4231  -7.7496  -0.8242   3.8317   4.3298   5.1552

          k =-0.0000 0.4985 0.0000 (  3786 PWs)   bands (ev):

   -19.0074 -17.2437 -10.6406  -6.7425  -2.1756   3.7584   6.1766   7.0524

          k = 0.0617 0.1068 0.0000 (  3765 PWs)   bands (ev):

   -23.7483 -11.6833  -8.2848  -7.8133  -0.5523   0.2352   1.0140   1.3708

          k = 0.0617 0.1780 0.0000 (  3747 PWs)   bands (ev):

   -23.3176 -11.1665  -9.5649  -8.5751   0.0371   0.8320   1.6158   1.9691

          k = 0.0617 0.2492 0.0000 (  3742 PWs)   bands (ev):

   -22.6754 -11.1987 -10.4048  -9.3625   0.9202   1.7218   2.5182   2.8593

          k = 0.0617 0.3204 0.0000 (  3760 PWs)   bands (ev):

   -21.8275 -12.9776 -10.0556  -9.4181   1.9087   2.0937   2.9454   3.7187

          k = 0.0617 0.3916 0.0000 (  3768 PWs)   bands (ev):

   -20.7829 -14.7520 -10.5818  -8.2602   0.0273   3.5457   4.4091   4.4509

          k = 0.0617 0.4629 0.0000 (  3770 PWs)   bands (ev):

   -19.5665 -16.4266 -10.9101  -7.0876  -1.6269   4.2732   5.3198   6.1633

          k = 0.0617 0.5341 0.0000 (  3806 PWs)   bands (ev):

   -18.5334 -17.6214 -11.0224  -6.4681  -2.4167   4.2269   7.2320   7.3871

          k = 0.1233 0.2136 0.0000 (  3747 PWs)   bands (ev):

   -22.7822 -10.6924 -10.5291  -9.5861   0.7739   1.5760   2.3683   2.7155

          k = 0.1233 0.2848 0.0000 (  3763 PWs)   bands (ev):

   -22.0392 -12.1338 -10.5287  -9.6568   1.8029   2.4800   2.6461   3.4212

          k = 0.1233 0.3560 0.0000 (  3774 PWs)   bands (ev):

   -21.0952 -13.7813 -11.2271  -8.5800   0.7397   3.1199   3.9441   4.7724

          k = 0.1233 0.4272 0.0000 (  3775 PWs)   bands (ev):

   -19.9659 -15.4476 -11.6859  -7.3824  -0.9794   4.7122   5.5369   5.6576

          k = 0.1233 0.4985 0.0000 (  3773 PWs)   bands (ev):

   -18.7216 -16.9768 -11.9175  -6.3516  -2.2884   5.5340   6.5935   7.2980

          k = 0.1850 0.3204 0.0000 (  3761 PWs)   bands (ev):

   -21.1998 -13.1640 -11.7572  -8.6897   1.0387   2.9752   3.7815   4.6242

          k = 0.1850 0.3916 0.0000 (  3768 PWs)   bands (ev):

   -20.1698 -14.4910 -12.6037  -7.5464  -0.5155   4.4293   5.2013   6.1247

          k = 0.1850 0.4629 0.0000 (  3757 PWs)   bands (ev):

   -18.9795 -15.9744 -13.0355  -6.3533  -1.9788   6.1446   6.6950   7.3684

          k = 0.1850 0.5341 0.0000 (  3752 PWs)   bands (ev):

   -17.9800 -17.0836 -13.1699  -5.6700  -2.7591   7.2944   7.9772   8.1920

          k = 0.2467 0.4272 0.0000 (  3769 PWs)   bands (ev):

   -19.0730 -15.2706 -13.7948  -6.3687  -1.8197   6.0032   6.4510   7.7269

          k = 0.2467 0.4985 0.0000 (  3773 PWs)   bands (ev):

   -17.8850 -16.3640 -14.3524  -5.2348  -3.0098   6.8090   7.7731   9.0414

          k = 0.3083 0.5341 0.0000 (  3771 PWs)   bands (ev):

   -16.8871 -16.8871 -15.0373  -4.1010  -4.1010   9.1340   9.1340   9.6269

     the Fermi energy is    -4.1010 ev

!    total energy              =     -22.76635128 Ry
     estimated scf accuracy    <          2.2E-11 Ry
     smearing contrib. (-TS)   =      -0.00005015 Ry
     internal energy E=F+TS    =     -22.76630113 Ry

     The total energy is F=E-TS. E is the sum of the following terms:
     one-electron contribution =    -399.84950686 Ry
     hartree contribution      =     200.57775933 Ry
     xc contribution           =      -7.08018992 Ry
     ewald contribution        =     183.58563632 Ry

     convergence has been achieved in  24 iterations

     Forces acting on atoms (cartesian axes, Ry/au):

     atom    1 type  1   force =    -0.00000000   -0.00000000    0.00000000
     atom    2 type  1   force =     0.00000000    0.00000000    0.00000000

     Total force =     0.000000     Total SCF correction =     0.000000


     Computing stress (Cartesian axis) and pressure

          total   stress  (Ry/bohr**3)                   (kbar)     P=       -5.36
   0.00001603   0.00000000   0.00000000            2.36        0.00        0.00
   0.00000000   0.00001603   0.00000000            0.00        2.36        0.00
   0.00000000   0.00000000  -0.00014128            0.00        0.00      -20.78

     Energy error            =      8.2E-04
     Gradient error          =      1.6E-26
     Cell gradient error     =      1.6E-05


     number of scf cycles    =   4
     number of bfgs steps    =   3

     enthalpy old            =     -22.7655351418 Ry
     enthalpy new            =     -22.7663512777 Ry

     CASE: enthalpy_new < enthalpy_old

     new trust radius        =       0.0054382728 bohr
     new conv_thr            =            1.0E-10 Ry

     new unit-cell volume =    738.38433 a.u.^3 (   109.41727 Ang^3 )
     density =      0.36455 g/cm^3

CELL_PARAMETERS (alat=  4.24000000)
   1.082137763   0.000000000   0.000000000
  -0.541068882   0.937158793   0.000000000
   0.000000000   0.000000000   9.551886792

ATOMIC_POSITIONS (crystal)
C             0.3333333333        0.6666666667        0.5000000000
C             0.6666666667        0.3333333333        0.5000000000



     Writing output data file ./work/LiC424.save/
     NEW-OLD atomic charge density approx. for the potential

     negative rho (up, down):  1.324E-08 0.000E+00
     extrapolated charge    8.01597, renormalised to    8.00000

     total cpu time spent up to now is       16.5 secs

     Self-consistent Calculation

     iteration #  1     ecut=    50.00 Ry     beta= 0.70
     Davidson diagonalization with overlap
     c_bands:  1 eigenvalues not converged
     c_bands:  1 eigenvalues not converged
     ethr =  1.00E-06,  avg # of iterations = 11.9

     total cpu time spent up to now is       16.8 secs

     total energy              =     -22.76620458 Ry
     estimated scf accuracy    <       0.00008165 Ry

     iteration #  2     ecut=    50.00 Ry     beta= 0.70
     Davidson diagonalization with overlap
     c_bands:  1 eigenvalues not converged
     c_bands:  1 eigenvalues not converged
     c_bands:  1 eigenvalues not converged
     c_bands:  1 eigenvalues not converged
     c_bands:  1 eigenvalues not converged
     ethr =  1.02E-06,  avg # of iterations = 11.7

     total cpu time spent up to now is       17.0 secs

     total energy              =     -22.76636822 Ry
     estimated scf accuracy    <       0.00007662 Ry

     iteration #  3     ecut=    50.00 Ry     beta= 0.70
     Davidson diagonalization with overlap
     ethr =  9.58E-07,  avg # of iterations =  1.1

     total cpu time spent up to now is       17.2 secs

     total energy              =     -22.76636388 Ry
     estimated scf accuracy    <       0.00001750 Ry

     iteration #  4     ecut=    50.00 Ry     beta= 0.70
     Davidson diagonalization with overlap
     ethr =  2.19E-07,  avg # of iterations =  1.3

     total cpu time spent up to now is       17.3 secs

     total energy              =     -22.76636497 Ry
     estimated scf accuracy    <       0.00000327 Ry

     iteration #  5     ecut=    50.00 Ry     beta= 0.70
     Davidson diagonalization with overlap
     ethr =  4.09E-08,  avg # of iterations =  1.0

     total cpu time spent up to now is       17.4 secs

     total energy              =     -22.76636451 Ry
     estimated scf accuracy    <       0.00000335 Ry

     iteration #  6     ecut=    50.00 Ry     beta= 0.70
     Davidson diagonalization with overlap
     ethr =  4.09E-08,  avg # of iterations =  1.0

     total cpu time spent up to now is       17.5 secs

     total energy              =     -22.76636311 Ry
     estimated scf accuracy    <       0.00000231 Ry

     iteration #  7     ecut=    50.00 Ry     beta= 0.70
     Davidson diagonalization with overlap
     ethr =  2.88E-08,  avg # of iterations =  2.0

     total cpu time spent up to now is       17.6 secs

     total energy              =     -22.76636343 Ry
     estimated scf accuracy    <       0.00000020 Ry

     iteration #  8     ecut=    50.00 Ry     beta= 0.70
     Davidson diagonalization with overlap
     ethr =  2.46E-09,  avg # of iterations =  1.6

     total cpu time spent up to now is       17.7 secs

     total energy              =     -22.76636344 Ry
     estimated scf accuracy    <       0.00000002 Ry

     iteration #  9     ecut=    50.00 Ry     beta= 0.70
     Davidson diagonalization with overlap
     ethr =  1.92E-10,  avg # of iterations =  1.6

     total cpu time spent up to now is       17.8 secs

     total energy              =     -22.76636344 Ry
     estimated scf accuracy    <          3.5E-09 Ry

     iteration # 10     ecut=    50.00 Ry     beta= 0.70
     Davidson diagonalization with overlap
     ethr =  4.38E-11,  avg # of iterations =  1.2

     total cpu time spent up to now is       17.9 secs

     total energy              =     -22.76636344 Ry
     estimated scf accuracy    <          1.2E-09 Ry

     iteration # 11     ecut=    50.00 Ry     beta= 0.70
     Davidson diagonalization with overlap
     ethr =  1.51E-11,  avg # of iterations =  2.0

     total cpu time spent up to now is       18.0 secs

     total energy              =     -22.76636344 Ry
     estimated scf accuracy    <          6.0E-10 Ry

     iteration # 12     ecut=    50.00 Ry     beta= 0.70
     Davidson diagonalization with overlap
     ethr =  7.52E-12,  avg # of iterations =  1.0

     total cpu time spent up to now is       18.2 secs

     total energy              =     -22.76636344 Ry
     estimated scf accuracy    <          1.1E-10 Ry

     iteration # 13     ecut=    50.00 Ry     beta= 0.70
     Davidson diagonalization with overlap
     ethr =  1.42E-12,  avg # of iterations =  1.2

     total cpu time spent up to now is       18.3 secs

     End of self-consistent calculation

          k = 0.0000 0.0000 0.0000 (  3799 PWs)   bands (ev):

   -24.0574 -12.0636  -7.1211  -7.1211  -0.9937  -0.2133   0.5626   0.9213

          k =-0.0000 0.0711 0.0000 (  3775 PWs)   bands (ev):

   -23.9494 -11.9322  -7.5524  -7.3512  -0.8467  -0.0640   0.7127   1.0709

          k =-0.0000 0.1423 0.0000 (  3752 PWs)   bands (ev):

   -23.6261 -11.5426  -8.7065  -7.9424  -0.4056   0.3833   1.1631   1.5192

          k =-0.0000 0.2134 0.0000 (  3750 PWs)   bands (ev):

   -23.0895 -10.9026 -10.2991  -8.6819   0.3291   1.1264   1.9136   2.2641

          k =-0.0000 0.2845 0.0000 (  3738 PWs)   bands (ev):

   -22.3439 -12.0866 -10.0247  -9.3938   1.3555   2.1402   2.9628   2.9740

          k =-0.0000 0.3557 0.0000 (  3772 PWs)   bands (ev):

   -21.3967 -13.9100 -10.0004  -8.9441   1.0004   2.6668   3.5268   4.0203

          k =-0.0000 0.4268 0.0000 (  3780 PWs)   bands (ev):

   -20.2604 -15.6620 -10.4238  -7.7488  -0.8396   3.7951   4.3172   5.1439

          k =-0.0000 0.4980 0.0000 (  3786 PWs)   bands (ev):

   -19.0030 -17.2363 -10.6407  -6.7449  -2.1866   3.7188   6.1626   7.0369

          k = 0.0616 0.1067 0.0000 (  3765 PWs)   bands (ev):

   -23.7338 -11.6724  -8.2933  -7.8208  -0.5526   0.2342   1.0130   1.3698

          k = 0.0616 0.1778 0.0000 (  3747 PWs)   bands (ev):

   -23.3039 -11.1569  -9.5718  -8.5805   0.0357   0.8298   1.6136   1.9669

          k = 0.0616 0.2490 0.0000 (  3742 PWs)   bands (ev):

   -22.6627 -11.2033 -10.3971  -9.3659   0.9169   1.7178   2.5142   2.8553

          k = 0.0616 0.3201 0.0000 (  3760 PWs)   bands (ev):

   -21.8163 -12.9794 -10.0574  -9.4129   1.8850   2.0881   2.9382   3.7120

          k = 0.0616 0.3913 0.0000 (  3768 PWs)   bands (ev):

   -20.7736 -14.7507 -10.5823  -8.2581   0.0090   3.5369   4.3994   4.4123

          k = 0.0616 0.4624 0.0000 (  3770 PWs)   bands (ev):

   -19.5600 -16.4219 -10.9100  -7.0888  -1.6400   4.2337   5.3071   6.1498

          k = 0.0616 0.5335 0.0000 (  3806 PWs)   bands (ev):

   -18.5325 -17.6108 -11.0220  -6.4713  -2.4272   4.1866   7.2154   7.3708

          k = 0.1232 0.2134 0.0000 (  3747 PWs)   bands (ev):

   -22.7694 -10.6985 -10.5211  -9.5887   0.7709   1.5723   2.3646   2.7118

          k = 0.1232 0.2845 0.0000 (  3763 PWs)   bands (ev):

   -22.0276 -12.1379 -10.5292  -9.6509   1.7979   2.4571   2.6362   3.4154

          k = 0.1232 0.3557 0.0000 (  3774 PWs)   bands (ev):

   -21.0853 -13.7824 -11.2265  -8.5770   0.7185   3.1122   3.9353   4.7637

          k = 0.1232 0.4268 0.0000 (  3775 PWs)   bands (ev):

   -19.9583 -15.4454 -11.6846  -7.3826  -0.9953   4.7011   5.5247   5.6169

          k = 0.1232 0.4980 0.0000 (  3773 PWs)   bands (ev):

   -18.7177 -16.9703 -11.9158  -6.3549  -2.3001   5.4926   6.5784   7.2812

          k = 0.1848 0.3201 0.0000 (  3761 PWs)   bands (ev):

   -21.1897 -13.1677 -11.7543  -8.6863   1.0160   2.9678   3.7731   4.6159

          k = 0.1848 0.3913 0.0000 (  3768 PWs)   bands (ev):

   -20.1617 -14.4922 -12.5995  -7.5461  -0.5337   4.4190   5.1897   6.1134

          k = 0.1848 0.4624 0.0000 (  3757 PWs)   bands (ev):

   -18.9741 -15.9718 -13.0312  -6.3563  -1.9926   6.1305   6.6796   7.3258

          k = 0.1848 0.5335 0.0000 (  3752 PWs)   bands (ev):

   -17.9794 -17.0756 -13.1656  -5.6751  -2.7703   7.2513   7.3542   7.9585

          k = 0.2464 0.4268 0.0000 (  3769 PWs)   bands (ev):

   -19.0671 -15.2724 -13.7865  -6.3715  -1.8346   5.9895   6.4363   7.7547

          k = 0.2464 0.4980 0.0000 (  3773 PWs)   bands (ev):

   -17.8825 -16.3625 -14.3434  -5.2408  -3.0214   6.7941   7.7550   9.2030

          k = 0.3080 0.5335 0.0000 (  3771 PWs)   bands (ev):

   -16.8874 -16.8874 -15.0233  -4.1100  -4.1100   6.5811   9.1065   9.1065

     the Fermi energy is    -4.1100 ev

!    total energy              =     -22.76636344 Ry
     estimated scf accuracy    <          4.6E-11 Ry
     smearing contrib. (-TS)   =      -0.00005015 Ry
     internal energy E=F+TS    =     -22.76631329 Ry

     The total energy is F=E-TS. E is the sum of the following terms:
     one-electron contribution =    -399.03932550 Ry
     hartree contribution      =     200.17054596 Ry
     xc contribution           =      -7.07576912 Ry
     ewald contribution        =     183.17823536 Ry

     convergence has been achieved in  13 iterations

     Forces acting on atoms (cartesian axes, Ry/au):

     atom    1 type  1   force =     0.00000000    0.00000000    0.00000000
     atom    2 type  1   force =     0.00000000    0.00000000    0.00000000

     Total force =     0.000000     Total SCF correction =     0.000000


     Computing stress (Cartesian axis) and pressure

          total   stress  (Ry/bohr**3)                   (kbar)     P=       -6.88
   0.00000047  -0.00000000   0.00000000            0.07       -0.00        0.00
  -0.00000000   0.00000047   0.00000000           -0.00        0.07        0.00
   0.00000000  -0.00000000  -0.00014130            0.00       -0.00      -20.79

     Energy error            =      1.2E-05
     Gradient error          =      0.0E+00
     Cell gradient error     =      4.7E-07


     number of scf cycles    =   5
     number of bfgs steps    =   4

     enthalpy old            =     -22.7663512777 Ry
     enthalpy new            =     -22.7663634418 Ry

     CASE: enthalpy_new < enthalpy_old

     new trust radius        =       0.0001627088 bohr
     new conv_thr            =            1.0E-10 Ry

     new unit-cell volume =    738.42855 a.u.^3 (   109.42382 Ang^3 )
     density =      0.36453 g/cm^3

CELL_PARAMETERS (alat=  4.24000000)
   1.082170162   0.000000000   0.000000000
  -0.541085081   0.937186851   0.000000000
   0.000000000   0.000000000   9.551886792

ATOMIC_POSITIONS (crystal)
C             0.3333333333        0.6666666667        0.5000000000
C             0.6666666667        0.3333333333        0.5000000000



     Writing output data file ./work/LiC424.save/
     NEW-OLD atomic charge density approx. for the potential
     extrapolated charge    8.00048, renormalised to    8.00000

     total cpu time spent up to now is       18.3 secs

     Self-consistent Calculation

     iteration #  1     ecut=    50.00 Ry     beta= 0.70
     Davidson diagonalization with overlap
     ethr =  1.00E-06,  avg # of iterations =  1.7

     Threshold (ethr) on eigenvalues was too large:
     Diagonalizing with lowered threshold

     Davidson diagonalization with overlap
     ethr =  8.18E-10,  avg # of iterations =  1.4

     total cpu time spent up to now is       18.5 secs

     total energy              =     -22.76636331 Ry
     estimated scf accuracy    <       0.00000007 Ry

     iteration #  2     ecut=    50.00 Ry     beta= 0.70
     Davidson diagonalization with overlap
     ethr =  9.03E-10,  avg # of iterations =  2.9

     total cpu time spent up to now is       18.7 secs

     total energy              =     -22.76636346 Ry
     estimated scf accuracy    <       0.00000007 Ry

     iteration #  3     ecut=    50.00 Ry     beta= 0.70
     Davidson diagonalization with overlap
     ethr =  8.17E-10,  avg # of iterations =  1.0

     total cpu time spent up to now is       18.8 secs

     total energy              =     -22.76636345 Ry
     estimated scf accuracy    <       0.00000001 Ry

     iteration #  4     ecut=    50.00 Ry     beta= 0.70
     Davidson diagonalization with overlap
     ethr =  1.87E-10,  avg # of iterations =  1.9

     total cpu time spent up to now is       18.9 secs

     total energy              =     -22.76636345 Ry
     estimated scf accuracy    <          2.3E-09 Ry

     iteration #  5     ecut=    50.00 Ry     beta= 0.70
     Davidson diagonalization with overlap
     ethr =  2.89E-11,  avg # of iterations =  1.0

     total cpu time spent up to now is       19.0 secs

     total energy              =     -22.76636345 Ry
     estimated scf accuracy    <          2.3E-09 Ry

     iteration #  6     ecut=    50.00 Ry     beta= 0.70
     Davidson diagonalization with overlap
     ethr =  2.86E-11,  avg # of iterations =  1.0

     total cpu time spent up to now is       19.1 secs

     total energy              =     -22.76636345 Ry
     estimated scf accuracy    <          3.1E-09 Ry

     iteration #  7     ecut=    50.00 Ry     beta= 0.70
     Davidson diagonalization with overlap
     ethr =  2.86E-11,  avg # of iterations =  2.0

     total cpu time spent up to now is       19.2 secs

     total energy              =     -22.76636345 Ry
     estimated scf accuracy    <          1.1E-09 Ry

     iteration #  8     ecut=    50.00 Ry     beta= 0.70
     Davidson diagonalization with overlap
     ethr =  1.38E-11,  avg # of iterations =  1.0

     total cpu time spent up to now is       19.3 secs

     End of self-consistent calculation

          k = 0.0000 0.0000 0.0000 (  3799 PWs)   bands (ev):

   -24.0569 -12.0632  -7.1214  -7.1214  -0.9937  -0.2133   0.5626   0.9213

          k =-0.0000 0.0711 0.0000 (  3775 PWs)   bands (ev):

   -23.9489 -11.9318  -7.5526  -7.3514  -0.8467  -0.0641   0.7127   1.0709

          k =-0.0000 0.1423 0.0000 (  3752 PWs)   bands (ev):

   -23.6256 -11.5423  -8.7066  -7.9426  -0.4057   0.3832   1.1630   1.5191

          k =-0.0000 0.2134 0.0000 (  3750 PWs)   bands (ev):

   -23.0891 -10.9023 -10.2992  -8.6820   0.3290   1.1263   1.9135   2.2640

          k =-0.0000 0.2845 0.0000 (  3738 PWs)   bands (ev):

   -22.3435 -12.0866 -10.0245  -9.3939   1.3554   2.1400   2.9626   2.9732

          k =-0.0000 0.3557 0.0000 (  3772 PWs)   bands (ev):

   -21.3963 -13.9099 -10.0004  -8.9440   0.9998   2.6665   3.5265   4.0192

          k =-0.0000 0.4268 0.0000 (  3780 PWs)   bands (ev):

   -20.2601 -15.6619 -10.4237  -7.7488  -0.8400   3.7941   4.3168   5.1435

          k =-0.0000 0.4979 0.0000 (  3786 PWs)   bands (ev):

   -19.0028 -17.2361 -10.6406  -6.7450  -2.1869   3.7176   6.1622   7.0364

          k = 0.0616 0.1067 0.0000 (  3765 PWs)   bands (ev):

   -23.7333 -11.6721  -8.2935  -7.8210  -0.5526   0.2342   1.0130   1.3698

          k = 0.0616 0.1778 0.0000 (  3747 PWs)   bands (ev):

   -23.3034 -11.1566  -9.5720  -8.5806   0.0356   0.8297   1.6135   1.9668

          k = 0.0616 0.2490 0.0000 (  3742 PWs)   bands (ev):

   -22.6623 -11.2034 -10.3969  -9.3660   0.9168   1.7176   2.5140   2.8551

          k = 0.0616 0.3201 0.0000 (  3760 PWs)   bands (ev):

   -21.8160 -12.9794 -10.0574  -9.4127   1.8843   2.0879   2.9380   3.7118

          k = 0.0616 0.3912 0.0000 (  3768 PWs)   bands (ev):

   -20.7733 -14.7506 -10.5823  -8.2580   0.0085   3.5366   4.3991   4.4111

          k = 0.0616 0.4624 0.0000 (  3770 PWs)   bands (ev):

   -19.5597 -16.4217 -10.9099  -7.0888  -1.6404   4.2325   5.3067   6.1493

          k = 0.0616 0.5335 0.0000 (  3806 PWs)   bands (ev):

   -18.5324 -17.6104 -11.0220  -6.4713  -2.4275   4.1855   7.2149   7.3703

          k = 0.1232 0.2134 0.0000 (  3747 PWs)   bands (ev):

   -22.7690 -10.6986 -10.5208  -9.5887   0.7708   1.5722   2.3645   2.7117

          k = 0.1232 0.2845 0.0000 (  3763 PWs)   bands (ev):

   -22.0272 -12.1379 -10.5291  -9.6507   1.7977   2.4564   2.6360   3.4152

          k = 0.1232 0.3557 0.0000 (  3774 PWs)   bands (ev):

   -21.0850 -13.7823 -11.2265  -8.5769   0.7179   3.1120   3.9350   4.7634

          k = 0.1232 0.4268 0.0000 (  3775 PWs)   bands (ev):

   -19.9580 -15.4453 -11.6845  -7.3826  -0.9957   4.7007   5.5243   5.6157

          k = 0.1232 0.4979 0.0000 (  3773 PWs)   bands (ev):

   -18.7175 -16.9700 -11.9157  -6.3550  -2.3004   5.4914   6.5780   7.2807

          k = 0.1848 0.3201 0.0000 (  3761 PWs)   bands (ev):

   -21.1894 -13.1677 -11.7541  -8.6862   1.0154   2.9676   3.7728   4.6157

          k = 0.1848 0.3912 0.0000 (  3768 PWs)   bands (ev):

   -20.1614 -14.4922 -12.5994  -7.5460  -0.5342   4.4186   5.1893   6.1130

          k = 0.1848 0.4624 0.0000 (  3757 PWs)   bands (ev):

   -18.9738 -15.9716 -13.0310  -6.3563  -1.9929   6.1301   6.6791   7.3245

          k = 0.1848 0.5335 0.0000 (  3752 PWs)   bands (ev):

   -17.9794 -17.0753 -13.1655  -5.6753  -2.7707   7.2500   7.3537   7.9580

          k = 0.2464 0.4268 0.0000 (  3769 PWs)   bands (ev):

   -19.0669 -15.2724 -13.7862  -6.3716  -1.8350   5.9891   6.4359   7.7543

          k = 0.2464 0.4979 0.0000 (  3773 PWs)   bands (ev):

   -17.8823 -16.3624 -14.3430  -5.2410  -3.0217   6.7937   7.7544   9.2024

          k = 0.3080 0.5335 0.0000 (  3771 PWs)   bands (ev):

   -16.8874 -16.8874 -15.0228  -4.1102  -4.1102   6.5807   9.1057   9.1057

     the Fermi energy is    -4.1102 ev

!    total energy              =     -22.76636345 Ry
     estimated scf accuracy    <          6.9E-13 Ry
     smearing contrib. (-TS)   =      -0.00005015 Ry
     internal energy E=F+TS    =     -22.76631330 Ry

     The total energy is F=E-TS. E is the sum of the following terms:
     one-electron contribution =    -399.01510779 Ry
     hartree contribution      =     200.15836372 Ry
     xc contribution           =      -7.07563494 Ry
     ewald contribution        =     183.16606571 Ry

     convergence has been achieved in   8 iterations

     Forces acting on atoms (cartesian axes, Ry/au):

     atom    1 type  1   force =    -0.00000000   -0.00000000    0.00000000
     atom    2 type  1   force =     0.00000000    0.00000000    0.00000000

     Total force =     0.000000     Total SCF correction =     0.000000


     Computing stress (Cartesian axis) and pressure

          total   stress  (Ry/bohr**3)                   (kbar)     P=       -6.93
   0.00000000   0.00000000   0.00000000            0.00        0.00        0.00
   0.00000000   0.00000000   0.00000000            0.00        0.00        0.00
  -0.00000000   0.00000000  -0.00014132           -0.00        0.00      -20.79

     Energy error            =      1.0E-08
     Gradient error          =      1.6E-26
     Cell gradient error     =      3.3E-09


     bfgs converged in   6 scf cycles and   5 bfgs steps
     (criteria: energy <  1.0E-04 Ry, force <  1.0E-08Ry/Bohr, cell <  1.0E-03kbar)

     End of BFGS Geometry Optimization

     Final enthalpy =     -22.7663634522 Ry

     File ./work/LiC424.bfgs deleted, as requested
Begin final coordinates
     new unit-cell volume =    738.42855 a.u.^3 (   109.42382 Ang^3 )
     density =      0.36453 g/cm^3

CELL_PARAMETERS (alat=  4.24000000)
   1.082170162   0.000000000   0.000000000
  -0.541085081   0.937186851   0.000000000
   0.000000000   0.000000000   9.551886792

ATOMIC_POSITIONS (crystal)
C             0.3333333333        0.6666666667        0.5000000000
C             0.6666666667        0.3333333333        0.5000000000
End final coordinates



     Writing output data file ./work/LiC424.save/

     Final scf calculation at the relaxed structure.
     The G-vectors are recalculated for the final unit cell
     Results may differ from those at the preceding step.
 
     Parallelization info
     --------------------
     sticks:   dense  smooth     PW     G-vecs:    dense   smooth      PW
     Min           9       9      2                 1095     1095     170
     Max          10      10      3                 1116     1116     213
     Sum         295     295     91                35325    35325    6325
 


     bravais-lattice index     =            4
     lattice parameter (alat)  =       4.2400  a.u.
     unit-cell volume          =     738.4285 (a.u.)^3
     number of atoms/cell      =            2
     number of atomic types    =            1
     number of electrons       =         8.00
     number of Kohn-Sham states=            8
     kinetic-energy cutoff     =      50.0000  Ry
     charge density cutoff     =     200.0000  Ry
     scf convergence threshold =      1.0E-10
     mixing beta               =       0.7000
     number of iterations used =            8  plain     mixing
     press convergence thresh. =      1.0E-03
     Exchange-correlation= PBE
                           (   1   4   3   4   0   0   0)

     celldm(1)=   4.240000  celldm(2)=   0.000000  celldm(3)=   9.551887
     celldm(4)=   0.000000  celldm(5)=   0.000000  celldm(6)=   0.000000

     crystal axes: (cart. coord. in units of alat)
               a(1) = (   1.082170   0.000000   0.000000 )  
               a(2) = (  -0.541085   0.937187   0.000000 )  
               a(3) = (   0.000000   0.000000   9.551887 )  

     reciprocal axes: (cart. coord. in units 2 pi/alat)
               b(1) = (  0.924069  0.533512  0.000000 )  
               b(2) = ( -0.000000  1.067023  0.000000 )  
               b(3) = (  0.000000  0.000000  0.104691 )  


     PseudoPot. # 1 for C  read from file:
     /home/yhkim/qe-6.7/pseudo/ONCV1/1.2/C_ONCV_PBE-1.2.upf
     MD5 check sum: 1a5f83a7b1f58d24996abe00ed223ac6
     Pseudo is Norm-conserving, Zval =  4.0
     Generated using ONCVPSP code by D. R. Hamann
     Using radial grid of  602 points,  4 beta functions with: 
                l(1) =   0
                l(2) =   0
                l(3) =   1
                l(4) =   1

     atomic species   valence    mass     pseudopotential
        C              4.00    12.01070     C ( 1.00)

     24 Sym. Ops., with inversion, found



   Cartesian axes

     site n.     atom                  positions (alat units)
         1           C   tau(   1) = (  -0.0000000   0.6247912   4.7759434  )
         2           C   tau(   2) = (   0.5410851   0.3123956   4.7759434  )

     number of k points=    27  Methfessel-Paxton smearing, width (Ry)=  0.0100
                       cart. coord. in units 2pi/alat
        k(    1) = (   0.0000000   0.0000000   0.0000000), wk =   0.0088889
        k(    2) = (  -0.0000000   0.0711349   0.0000000), wk =   0.0533333
        k(    3) = (  -0.0000000   0.1422697   0.0000000), wk =   0.0533333
        k(    4) = (  -0.0000000   0.2134046   0.0000000), wk =   0.0533333
        k(    5) = (  -0.0000000   0.2845395   0.0000000), wk =   0.0533333
        k(    6) = (  -0.0000000   0.3556744   0.0000000), wk =   0.0533333
        k(    7) = (  -0.0000000   0.4268092   0.0000000), wk =   0.0533333
        k(    8) = (  -0.0000000   0.4979441   0.0000000), wk =   0.0533333
        k(    9) = (   0.0616046   0.1067023   0.0000000), wk =   0.0533333
        k(   10) = (   0.0616046   0.1778372   0.0000000), wk =   0.1066667
        k(   11) = (   0.0616046   0.2489721   0.0000000), wk =   0.1066667
        k(   12) = (   0.0616046   0.3201069   0.0000000), wk =   0.1066667
        k(   13) = (   0.0616046   0.3912418   0.0000000), wk =   0.1066667
        k(   14) = (   0.0616046   0.4623767   0.0000000), wk =   0.1066667
        k(   15) = (   0.0616046   0.5335115   0.0000000), wk =   0.0533333
        k(   16) = (   0.1232092   0.2134046   0.0000000), wk =   0.0533333
        k(   17) = (   0.1232092   0.2845395   0.0000000), wk =   0.1066667
        k(   18) = (   0.1232092   0.3556744   0.0000000), wk =   0.1066667
        k(   19) = (   0.1232092   0.4268092   0.0000000), wk =   0.1066667
        k(   20) = (   0.1232092   0.4979441   0.0000000), wk =   0.1066667
        k(   21) = (   0.1848138   0.3201069   0.0000000), wk =   0.0533333
        k(   22) = (   0.1848138   0.3912418   0.0000000), wk =   0.1066667
        k(   23) = (   0.1848138   0.4623767   0.0000000), wk =   0.1066667
        k(   24) = (   0.1848138   0.5335115   0.0000000), wk =   0.0533333
        k(   25) = (   0.2464184   0.4268092   0.0000000), wk =   0.0533333
        k(   26) = (   0.2464184   0.4979441   0.0000000), wk =   0.1066667
        k(   27) = (   0.3080230   0.5335115   0.0000000), wk =   0.0177778

     Dense  grid:    35325 G-vectors     FFT dimensions: (  24,  24, 192)

     Estimated max dynamical RAM per process >       1.93 MB

     Estimated total dynamical RAM >      61.91 MB
 ----2D----2D----2D----2D----2D----2D----2D----2D----2D----2D----2D----2D
  The code is running with the 2D cutoff
  Please refer to:
  Sohier, T., Calandra, M., & Mauri, F. (2017), 
  Density functional perturbation theory for gated two-dimensional heterostructu
 res:
  Theoretical developments and application to flexural phonons in graphene.
  Physical Review B, 96(7), 75448. https://doi.org/10.1103/PhysRevB.96.075448
 ----2D----2D----2D----2D----2D----2D----2D----2D----2D----2D----2D----2D

     Initial potential from superposition of free atoms

     starting charge    7.98607, renormalised to    8.00000

     negative rho (up, down):  1.114E-04 0.000E+00
     Starting wfcs are random

     total cpu time spent up to now is       19.5 secs

     Self-consistent Calculation

     iteration #  1     ecut=    50.00 Ry     beta= 0.70
     Davidson diagonalization with overlap
     c_bands:  1 eigenvalues not converged
     c_bands:  2 eigenvalues not converged
     c_bands:  5 eigenvalues not converged
     c_bands:  5 eigenvalues not converged
     c_bands:  4 eigenvalues not converged
     c_bands:  3 eigenvalues not converged
     c_bands:  3 eigenvalues not converged
     c_bands:  2 eigenvalues not converged
     c_bands:  3 eigenvalues not converged
     c_bands:  5 eigenvalues not converged
     c_bands:  4 eigenvalues not converged
     c_bands:  4 eigenvalues not converged
     c_bands:  4 eigenvalues not converged
     c_bands:  2 eigenvalues not converged
     c_bands:  2 eigenvalues not converged
     c_bands:  4 eigenvalues not converged
     c_bands:  4 eigenvalues not converged
     c_bands:  4 eigenvalues not converged
     c_bands:  3 eigenvalues not converged
     c_bands:  3 eigenvalues not converged
     c_bands:  4 eigenvalues not converged
     c_bands:  3 eigenvalues not converged
     c_bands:  3 eigenvalues not converged
     c_bands:  3 eigenvalues not converged
     c_bands:  3 eigenvalues not converged
     c_bands:  3 eigenvalues not converged
     c_bands:  3 eigenvalues not converged
     ethr =  1.00E-06,  avg # of iterations = 22.2

     negative rho (up, down):  2.218E-05 0.000E+00

     total cpu time spent up to now is       20.2 secs

     total energy              =     -22.75498360 Ry
     estimated scf accuracy    <       0.21646183 Ry

     iteration #  2     ecut=    50.00 Ry     beta= 0.70
     Davidson diagonalization with overlap
     ethr =  2.71E-03,  avg # of iterations =  2.1

     negative rho (up, down):  2.785E-06 0.000E+00

     total cpu time spent up to now is       20.3 secs

     total energy              =     -22.78790193 Ry
     estimated scf accuracy    <       0.00240180 Ry

     iteration #  3     ecut=    50.00 Ry     beta= 0.70
     Davidson diagonalization with overlap
     ethr =  3.00E-05,  avg # of iterations =  9.6

     total cpu time spent up to now is       20.5 secs

     total energy              =     -22.78832808 Ry
     estimated scf accuracy    <       0.00017642 Ry

     iteration #  4     ecut=    50.00 Ry     beta= 0.70
     Davidson diagonalization with overlap
     c_bands:  1 eigenvalues not converged
     ethr =  2.21E-06,  avg # of iterations =  6.0

     total cpu time spent up to now is       20.7 secs

     total energy              =     -22.78834204 Ry
     estimated scf accuracy    <       0.00000122 Ry

     iteration #  5     ecut=    50.00 Ry     beta= 0.70
     Davidson diagonalization with overlap
     ethr =  1.52E-08,  avg # of iterations =  4.2

     total cpu time spent up to now is       20.8 secs

     total energy              =     -22.78834350 Ry
     estimated scf accuracy    <       0.00000004 Ry

     iteration #  6     ecut=    50.00 Ry     beta= 0.70
     Davidson diagonalization with overlap
     ethr =  4.81E-10,  avg # of iterations =  2.3

     total cpu time spent up to now is       20.9 secs

     total energy              =     -22.78834351 Ry
     estimated scf accuracy    <          8.8E-10 Ry

     iteration #  7     ecut=    50.00 Ry     beta= 0.70
     Davidson diagonalization with overlap
     ethr =  1.10E-11,  avg # of iterations =  3.1

     total cpu time spent up to now is       21.1 secs

     End of self-consistent calculation

          k = 0.0000 0.0000 0.0000 (  4375 PWs)   bands (ev):

   -24.0278 -12.0528  -7.1711  -7.1711  -0.9890  -0.2044   0.5813   0.9368

          k =-0.0000 0.0711 0.0000 (  4385 PWs)   bands (ev):

   -23.9200 -11.9232  -7.6015  -7.4040  -0.8421  -0.0553   0.7313   1.0861

          k =-0.0000 0.1423 0.0000 (  4359 PWs)   bands (ev):

   -23.5973 -11.5333  -8.7458  -7.9917  -0.4013   0.3919   1.1816   1.5345

          k =-0.0000 0.2134 0.0000 (  4383 PWs)   bands (ev):

   -23.0624 -10.8922 -10.3302  -8.7284   0.3330   1.1349   1.9319   2.2795

          k =-0.0000 0.2845 0.0000 (  4413 PWs)   bands (ev):

   -22.3192 -12.1051 -10.0151  -9.4459   1.3586   2.1474   2.9680   2.9809

          k =-0.0000 0.3557 0.0000 (  4433 PWs)   bands (ev):

   -21.3748 -13.9155 -10.0410  -8.9365   0.9960   2.6684   3.5344   4.0267

          k =-0.0000 0.4268 0.0000 (  4435 PWs)   bands (ev):

   -20.2428 -15.6617 -10.4597  -7.7423  -0.8404   3.8034   4.3220   5.1507

          k =-0.0000 0.4979 0.0000 (  4433 PWs)   bands (ev):

   -18.9864 -17.2349 -10.6759  -6.7383  -2.1856   3.7326   6.1626   7.0424

          k = 0.0616 0.1067 0.0000 (  4357 PWs)   bands (ev):

   -23.7046 -11.6629  -8.3330  -7.8692  -0.5481   0.2430   1.0315   1.3851

          k = 0.0616 0.1778 0.0000 (  4377 PWs)   bands (ev):

   -23.2761 -11.1478  -9.6068  -8.6259   0.0397   0.8383   1.6320   1.9822

          k = 0.0616 0.2490 0.0000 (  4393 PWs)   bands (ev):

   -22.6370 -11.2264 -10.3874  -9.4129   0.9204   1.7260   2.5324   2.8705

          k = 0.0616 0.3201 0.0000 (  4424 PWs)   bands (ev):

   -21.7933 -12.9891 -10.0986  -9.4049   1.8773   2.0906   2.9458   3.7298

          k = 0.0616 0.3912 0.0000 (  4427 PWs)   bands (ev):

   -20.7543 -14.7530 -10.6195  -8.2513   0.0060   3.5373   4.4065   4.4180

          k = 0.0616 0.4624 0.0000 (  4435 PWs)   bands (ev):

   -19.5455 -16.4209 -10.9424  -7.0842  -1.6406   4.2407   5.3084   6.1555

          k = 0.0616 0.5335 0.0000 (  4412 PWs)   bands (ev):

   -18.5098 -17.6123 -11.0518  -6.4641  -2.4242   4.1975   7.2153   7.3686

          k = 0.1232 0.2134 0.0000 (  4387 PWs)   bands (ev):

   -22.7434 -10.7227 -10.5120  -9.6286   0.7745   1.5806   2.3829   2.7272

          k = 0.1232 0.2845 0.0000 (  4406 PWs)   bands (ev):

   -22.0038 -12.1489 -10.5668  -9.6429   1.8008   2.4525   2.6422   3.4335

          k = 0.1232 0.3557 0.0000 (  4419 PWs)   bands (ev):

   -21.0651 -13.7851 -11.2578  -8.5701   0.7153   3.1140   3.9424   4.7813

          k = 0.1232 0.4268 0.0000 (  4431 PWs)   bands (ev):

   -19.9429 -15.4445 -11.7141  -7.3767  -0.9959   4.7001   5.5305   5.6120

          k = 0.1232 0.4979 0.0000 (  4411 PWs)   bands (ev):

   -18.7030 -16.9705 -11.9415  -6.3501  -2.2987   5.4900   6.5776   7.2844

          k = 0.1848 0.3201 0.0000 (  4409 PWs)   bands (ev):

   -21.1692 -13.1693 -11.7880  -8.6786   1.0082   2.9699   3.7802   4.6339

          k = 0.1848 0.3912 0.0000 (  4417 PWs)   bands (ev):

   -20.1456 -14.4893 -12.6288  -7.5392  -0.5384   4.4194   5.1954   6.1308

          k = 0.1848 0.4624 0.0000 (  4416 PWs)   bands (ev):

   -18.9626 -15.9691 -13.0581  -6.3512  -1.9950   6.1278   6.6826   7.3039

          k = 0.1848 0.5335 0.0000 (  4419 PWs)   bands (ev):

   -17.9645 -17.0831 -13.1912  -5.6711  -2.7703   7.2296   7.3565   7.9524

          k = 0.2464 0.4268 0.0000 (  4417 PWs)   bands (ev):

   -19.0567 -15.2644 -13.8126  -6.3668  -1.8358   5.9871   6.4395   7.7302

          k = 0.2464 0.4979 0.0000 (  4404 PWs)   bands (ev):

   -17.8709 -16.3562 -14.3666  -5.2380  -3.0213   6.7987   7.7480   8.9649

          k = 0.3080 0.5335 0.0000 (  4395 PWs)   bands (ev):

   -16.8770 -16.8770 -15.0511  -4.1077  -4.1077   6.5869   9.0818   9.0819

     the Fermi energy is    -4.1077 ev

!    total energy              =     -22.78834351 Ry
     estimated scf accuracy    <          1.3E-11 Ry
     smearing contrib. (-TS)   =      -0.00005015 Ry
     internal energy E=F+TS    =     -22.78829336 Ry

     The total energy is F=E-TS. E is the sum of the following terms:
     one-electron contribution =    -399.05570683 Ry
     hartree contribution      =     200.17822280 Ry
     xc contribution           =      -7.07687525 Ry
     ewald contribution        =     183.16606592 Ry

     convergence has been achieved in   7 iterations

     Forces acting on atoms (cartesian axes, Ry/au):

     atom    1 type  1   force =    -0.00000000   -0.00000000    0.00000000
     atom    2 type  1   force =     0.00000000    0.00000000    0.00000000

     Total force =     0.000000     Total SCF correction =     0.000000


     Computing stress (Cartesian axis) and pressure

          total   stress  (Ry/bohr**3)                   (kbar)     P=        4.56
   0.00010251  -0.00000000   0.00000000           15.08       -0.00        0.00
  -0.00000000   0.00010251   0.00000000           -0.00       15.08        0.00
   0.00000000   0.00000000  -0.00011199            0.00        0.00      -16.47


     Writing output data file ./work/LiC424.save/
 
     init_run     :      0.15s CPU      0.18s WALL (       2 calls)
     electrons    :     19.08s CPU     20.58s WALL (       7 calls)
     update_pot   :      0.05s CPU      0.06s WALL (       5 calls)
     forces       :      0.05s CPU      0.06s WALL (       7 calls)
     stress       :      0.14s CPU      0.15s WALL (       7 calls)

     Called by init_run:
     wfcinit      :      0.10s CPU      0.11s WALL (       2 calls)
     potinit      :      0.03s CPU      0.04s WALL (       2 calls)
     hinit0       :      0.01s CPU      0.01s WALL (       2 calls)

     Called by electrons:
     c_bands      :     16.91s CPU     18.14s WALL (     107 calls)
     sum_band     :      1.93s CPU      2.06s WALL (     107 calls)
     v_of_rho     :      0.18s CPU      0.20s WALL (     113 calls)
     mix_rho      :      0.04s CPU      0.04s WALL (     107 calls)

     Called by c_bands:
     init_us_2    :      0.10s CPU      0.11s WALL (    6210 calls)
     cegterg      :     16.62s CPU     17.79s WALL (    2955 calls)

     Called by *egterg:
     cdiaghg      :      1.46s CPU      1.56s WALL (   16168 calls)
     h_psi        :     14.12s CPU     15.13s WALL (   16392 calls)
     g_psi        :      0.04s CPU      0.04s WALL (   13383 calls)

     Called by h_psi:
     h_psi:calbec :      0.45s CPU      0.48s WALL (   16392 calls)
     vloc_psi     :     13.41s CPU     14.37s WALL (   16392 calls)
     add_vuspsi   :      0.13s CPU      0.14s WALL (   16392 calls)

     General routines
     calbec       :      0.45s CPU      0.48s WALL (   17337 calls)
     fft          :      0.16s CPU      0.18s WALL (    1185 calls)
     ffts         :      0.01s CPU      0.01s WALL (     107 calls)
     fftw         :     14.51s CPU     15.54s WALL (  203064 calls)
 
     Parallel routines
     fft_scatt_xy :      0.77s CPU      0.82s WALL (  204356 calls)
     fft_scatt_yz :      6.15s CPU      6.58s WALL (  204356 calls)
 
     PWSCF        :     19.57s CPU     21.34s WALL

 
   This run was terminated on:  14: 6:48  19Jan2024            

=------------------------------------------------------------------------------=
   JOB DONE.
=------------------------------------------------------------------------------=
