
     Program PWSCF v.6.7MaX starts on 19Jan2024 at 15:43:44 

     This program is part of the open-source Quantum ESPRESSO suite
     for quantum simulation of materials; please cite
         "P. Giannozzi et al., J. Phys.:Condens. Matter 21 395502 (2009);
         "P. Giannozzi et al., J. Phys.:Condens. Matter 29 465901 (2017);
          URL http://www.quantum-espresso.org", 
     in publications or presentations arising from this work. More details at
     http://www.quantum-espresso.org/quote

     Parallel version (MPI), running on    32 processors

     MPI processes distributed on     1 nodes
     R & G space division:  proc/nbgrp/npool/nimage =      32
     Waiting for input...
     Reading input from standard input

     Current dimensions of program PWSCF are:
     Max number of different atomic species (ntypx) = 10
     Max number of k-points (npk) =  40000
     Max angular momentum in pseudopotentials (lmaxx) =  3
     Message from routine read_pp_mesh:
     mesh size missing, using the one in header

     Subspace diagonalization in iterative solution of the eigenvalue problem:
     a serial algorithm will be used

 
     Parallelization info
     --------------------
     sticks:   dense  smooth     PW     G-vecs:    dense   smooth      PW
     Min           5       5      2                  772      772     139
     Max           7       7      5                  825      825     160
     Sum         211     211     73                25485    25485    4785
 


     bravais-lattice index     =            4
     lattice parameter (alat)  =       3.9000  a.u.
     unit-cell volume          =     533.4760 (a.u.)^3
     number of atoms/cell      =            2
     number of atomic types    =            1
     number of electrons       =         8.00
     number of Kohn-Sham states=            8
     kinetic-energy cutoff     =      50.0000  Ry
     charge density cutoff     =     200.0000  Ry
     scf convergence threshold =      1.0E-08
     mixing beta               =       0.7000
     number of iterations used =            8  plain     mixing
     energy convergence thresh.=      1.0E-04
     force convergence thresh. =      1.0E-08
     press convergence thresh. =      1.0E-03
     Exchange-correlation= PBE
                           (   1   4   3   4   0   0   0)
     nstep                     =           50


     celldm(1)=   3.900000  celldm(2)=   0.000000  celldm(3)=  10.384615
     celldm(4)=   0.000000  celldm(5)=   0.000000  celldm(6)=   0.000000

     crystal axes: (cart. coord. in units of alat)
               a(1) = (   1.000000   0.000000   0.000000 )  
               a(2) = (  -0.500000   0.866025   0.000000 )  
               a(3) = (   0.000000   0.000000  10.384615 )  

     reciprocal axes: (cart. coord. in units 2 pi/alat)
               b(1) = (  1.000000  0.577350  0.000000 )  
               b(2) = (  0.000000  1.154701  0.000000 )  
               b(3) = (  0.000000  0.000000  0.096296 )  


     PseudoPot. # 1 for C  read from file:
     /home/yhkim/qe-6.7/pseudo/ONCV1/1.2/C_ONCV_PBE-1.2.upf
     MD5 check sum: 1a5f83a7b1f58d24996abe00ed223ac6
     Pseudo is Norm-conserving, Zval =  4.0
     Generated using ONCVPSP code by D. R. Hamann
     Using radial grid of  602 points,  4 beta functions with: 
                l(1) =   0
                l(2) =   0
                l(3) =   1
                l(4) =   1

     atomic species   valence    mass     pseudopotential
        C              4.00    12.01070     C ( 1.00)

     24 Sym. Ops., with inversion, found



   Cartesian axes

     site n.     atom                  positions (alat units)
         1           C   tau(   1) = (  -0.0000000   0.5773503   5.1923077  )
         2           C   tau(   2) = (   0.5000000   0.2886751   5.1923077  )

     number of k points=    27  Methfessel-Paxton smearing, width (Ry)=  0.0100
                       cart. coord. in units 2pi/alat
        k(    1) = (   0.0000000   0.0000000   0.0000000), wk =   0.0088889
        k(    2) = (   0.0000000   0.0769800   0.0000000), wk =   0.0533333
        k(    3) = (   0.0000000   0.1539601   0.0000000), wk =   0.0533333
        k(    4) = (   0.0000000   0.2309401   0.0000000), wk =   0.0533333
        k(    5) = (   0.0000000   0.3079201   0.0000000), wk =   0.0533333
        k(    6) = (   0.0000000   0.3849002   0.0000000), wk =   0.0533333
        k(    7) = (   0.0000000   0.4618802   0.0000000), wk =   0.0533333
        k(    8) = (   0.0000000   0.5388603   0.0000000), wk =   0.0533333
        k(    9) = (   0.0666667   0.1154701   0.0000000), wk =   0.0533333
        k(   10) = (   0.0666667   0.1924501   0.0000000), wk =   0.1066667
        k(   11) = (   0.0666667   0.2694301   0.0000000), wk =   0.1066667
        k(   12) = (   0.0666667   0.3464102   0.0000000), wk =   0.1066667
        k(   13) = (   0.0666667   0.4233902   0.0000000), wk =   0.1066667
        k(   14) = (   0.0666667   0.5003702   0.0000000), wk =   0.1066667
        k(   15) = (   0.0666667   0.5773503   0.0000000), wk =   0.0533333
        k(   16) = (   0.1333333   0.2309401   0.0000000), wk =   0.0533333
        k(   17) = (   0.1333333   0.3079201   0.0000000), wk =   0.1066667
        k(   18) = (   0.1333333   0.3849002   0.0000000), wk =   0.1066667
        k(   19) = (   0.1333333   0.4618802   0.0000000), wk =   0.1066667
        k(   20) = (   0.1333333   0.5388603   0.0000000), wk =   0.1066667
        k(   21) = (   0.2000000   0.3464102   0.0000000), wk =   0.0533333
        k(   22) = (   0.2000000   0.4233902   0.0000000), wk =   0.1066667
        k(   23) = (   0.2000000   0.5003702   0.0000000), wk =   0.1066667
        k(   24) = (   0.2000000   0.5773503   0.0000000), wk =   0.0533333
        k(   25) = (   0.2666667   0.4618802   0.0000000), wk =   0.0533333
        k(   26) = (   0.2666667   0.5388603   0.0000000), wk =   0.1066667
        k(   27) = (   0.3333333   0.5773503   0.0000000), wk =   0.0177778

     Dense  grid:    25485 G-vectors     FFT dimensions: (  18,  18, 192)

     Estimated max dynamical RAM per process >       1.53 MB

     Estimated total dynamical RAM >      48.99 MB
 ----2D----2D----2D----2D----2D----2D----2D----2D----2D----2D----2D----2D
  The code is running with the 2D cutoff
  Please refer to:
  Sohier, T., Calandra, M., & Mauri, F. (2017), 
  Density functional perturbation theory for gated two-dimensional heterostructu
 res:
  Theoretical developments and application to flexural phonons in graphene.
  Physical Review B, 96(7), 75448. https://doi.org/10.1103/PhysRevB.96.075448
 ----2D----2D----2D----2D----2D----2D----2D----2D----2D----2D----2D----2D

     Initial potential from superposition of free atoms

     starting charge    7.98607, renormalised to    8.00000

     negative rho (up, down):  9.930E-05 0.000E+00
     Starting wfcs are random

     total cpu time spent up to now is        0.1 secs

     Self-consistent Calculation

     iteration #  1     ecut=    50.00 Ry     beta= 0.70
     Davidson diagonalization with overlap
     ethr =  1.00E-02,  avg # of iterations = 12.3

     negative rho (up, down):  6.965E-07 0.000E+00

     total cpu time spent up to now is        0.6 secs

     total energy              =     -22.28166367 Ry
     estimated scf accuracy    <       0.63081256 Ry

     iteration #  2     ecut=    50.00 Ry     beta= 0.70
     Davidson diagonalization with overlap
     ethr =  7.89E-03,  avg # of iterations =  2.7

     negative rho (up, down):  1.977E-08 0.000E+00

     total cpu time spent up to now is        0.7 secs

     total energy              =     -22.37777982 Ry
     estimated scf accuracy    <       0.00322062 Ry

     iteration #  3     ecut=    50.00 Ry     beta= 0.70
     Davidson diagonalization with overlap
     ethr =  4.03E-05,  avg # of iterations =  9.3

     total cpu time spent up to now is        1.0 secs

     total energy              =     -22.37922834 Ry
     estimated scf accuracy    <       0.00020264 Ry

     iteration #  4     ecut=    50.00 Ry     beta= 0.70
     Davidson diagonalization with overlap
     ethr =  2.53E-06,  avg # of iterations =  6.1

     total cpu time spent up to now is        1.2 secs

     total energy              =     -22.37926714 Ry
     estimated scf accuracy    <       0.00000245 Ry

     iteration #  5     ecut=    50.00 Ry     beta= 0.70
     Davidson diagonalization with overlap
     ethr =  3.06E-08,  avg # of iterations =  3.6

     total cpu time spent up to now is        1.4 secs

     total energy              =     -22.37926978 Ry
     estimated scf accuracy    <       0.00000010 Ry

     iteration #  6     ecut=    50.00 Ry     beta= 0.70
     Davidson diagonalization with overlap
     ethr =  1.25E-09,  avg # of iterations =  2.3

     total cpu time spent up to now is        1.5 secs

     End of self-consistent calculation

          k = 0.0000 0.0000 0.0000 (  3241 PWs)   bands (ev):

   -26.4953 -14.2738  -4.7664  -1.0580  -0.2173   0.5411   0.8935   2.2139

          k = 0.0000 0.0770 0.0000 (  3253 PWs)   bands (ev):

   -26.3570 -14.0846  -5.3183  -5.1522  -0.8564  -0.0096   0.7487   1.1015

          k = 0.0000 0.1540 0.0000 (  3239 PWs)   bands (ev):

   -25.9428 -13.5154  -6.7988  -6.1038  -0.2490   0.6136   1.3720   1.7257

          k = 0.0000 0.2309 0.0000 (  3216 PWs)   bands (ev):

   -25.2564 -12.5756  -8.8354  -7.2602   0.7658   1.6505   2.4117   2.7646

          k = 0.0000 0.3079 0.0000 (  3184 PWs)   bands (ev):

   -24.3039 -11.2786 -11.1358  -8.3528   2.1859   3.0957   3.8677   4.2132

          k = 0.0000 0.3849 0.0000 (  3166 PWs)   bands (ev):

   -23.0958 -13.4724  -9.6655  -9.2487   4.0079   4.6619   5.2956   5.7395

          k = 0.0000 0.4619 0.0000 (  3156 PWs)   bands (ev):

   -21.6537 -15.7129  -9.8764  -7.8381   2.0315   6.2265   7.2835   8.0256

          k = 0.0000 0.5389 0.0000 (  3160 PWs)   bands (ev):

   -20.0852 -17.6932 -10.2012  -6.2148  -0.1792   8.8295   9.9552  10.7143

          k = 0.0667 0.1155 0.0000 (  3245 PWs)   bands (ev):

   -26.0807 -13.7048  -6.2401  -5.9133  -0.4514   0.4059   1.1642   1.5177

          k = 0.0667 0.1925 0.0000 (  3221 PWs)   bands (ev):

   -25.5304 -12.9500  -7.8675  -7.0848   0.3612   1.2361   1.9960   2.3493

          k = 0.0667 0.2694 0.0000 (  3197 PWs)   bands (ev):

   -24.7110 -11.8309  -9.9769  -8.2485   1.5799   2.4785   3.2442   3.5945

          k = 0.0667 0.3464 0.0000 (  3187 PWs)   bands (ev):

   -23.6305 -12.2715 -10.3709  -9.2516   3.2020   4.1143   4.9083   5.2284

          k = 0.0667 0.4234 0.0000 (  3170 PWs)   bands (ev):

   -22.3031 -14.5497 -10.0139  -8.6292   3.4453   5.2233   6.2547   6.9878

          k = 0.0667 0.5004 0.0000 (  3156 PWs)   bands (ev):

   -20.7690 -16.6829 -10.4817  -6.8028   0.7925   7.6362   8.7095   9.4810

          k = 0.0667 0.5774 0.0000 (  3152 PWs)   bands (ev):

   -19.5198 -18.1362 -10.6419  -5.7674  -0.5297  10.4214  10.4242  11.5549

          k = 0.1333 0.2309 0.0000 (  3189 PWs)   bands (ev):

   -24.8469 -12.0152  -9.1684  -8.6406   1.3792   2.2723   3.0368   3.3878

          k = 0.1333 0.3079 0.0000 (  3190 PWs)   bands (ev):

   -23.8994 -11.0704 -10.7275  -9.9006   2.8016   3.7175   4.4935   4.8370

          k = 0.1333 0.3849 0.0000 (  3184 PWs)   bands (ev):

   -22.6977 -13.2660 -10.7835  -9.1215   4.6240   4.7492   5.6351   6.3659

          k = 0.1333 0.4619 0.0000 (  3171 PWs)   bands (ev):

   -21.2646 -15.4351 -11.3822  -7.2951   2.0255   6.8402   7.8504   8.6529

          k = 0.1333 0.5389 0.0000 (  3156 PWs)   bands (ev):

   -19.6975 -17.3868 -11.6875  -5.6462  -0.1254   9.4377  10.4536  11.3525

          k = 0.2000 0.3464 0.0000 (  3194 PWs)   bands (ev):

   -22.8303 -12.0949 -11.8094  -9.2888   4.4247   5.3607   5.4211   6.1584

          k = 0.2000 0.4234 0.0000 (  3186 PWs)   bands (ev):

   -21.5189 -14.0556 -12.6499  -7.5650   2.9939   6.4417   7.3857   8.2382

          k = 0.2000 0.5004 0.0000 (  3169 PWs)   bands (ev):

   -20.0019 -16.0873 -13.0822  -5.7225   0.6610   8.8394   9.6501  10.7306

          k = 0.2000 0.5774 0.0000 (  3160 PWs)   bands (ev):

   -18.7284 -17.5400 -13.2284  -4.6065  -0.6306  10.8490  11.5244  11.6464

          k = 0.2667 0.4619 0.0000 (  3186 PWs)   bands (ev):

   -20.1163 -14.6909 -14.5200  -5.7741   1.0795   8.6392   9.2877  10.5268

          k = 0.2667 0.5389 0.0000 (  3174 PWs)   bands (ev):

   -18.5713 -16.4742 -14.8630  -4.0109  -0.7445   9.7435  11.1800  12.7291

          k = 0.3333 0.5774 0.0000 (  3192 PWs)   bands (ev):

   -17.4908 -16.3387 -16.3387  -2.3079  -2.3079   9.2773  13.6522  13.6522

     the Fermi energy is    -2.2655 ev

!    total energy              =     -22.37926981 Ry
     estimated scf accuracy    <          2.8E-09 Ry
     smearing contrib. (-TS)   =      -0.00003668 Ry
     internal energy E=F+TS    =     -22.37923313 Ry

     The total energy is F=E-TS. E is the sum of the following terms:
     one-electron contribution =    -554.99413055 Ry
     hartree contribution      =     278.61061275 Ry
     xc contribution           =      -7.86710161 Ry
     ewald contribution        =     261.87138628 Ry

     convergence has been achieved in   6 iterations

     Forces acting on atoms (cartesian axes, Ry/au):

     atom    1 type  1   force =    -0.00000000   -0.00000000    0.00000000
     atom    2 type  1   force =     0.00000000    0.00000000    0.00000000

     Total force =     0.000000     Total SCF correction =     0.000000


     Computing stress (Cartesian axis) and pressure

          total   stress  (Ry/bohr**3)                   (kbar)     P=      442.43
   0.00459796  -0.00000000  -0.00000000          676.38       -0.00       -0.00
  -0.00000000   0.00459796   0.00000000           -0.00      676.38        0.00
   0.00000000   0.00000000  -0.00017320            0.00        0.00      -25.48


     BFGS Geometry Optimization
     Energy error            =      0.0E+00
     Gradient error          =      1.7E-26
     Cell gradient error     =      4.6E-03


     number of scf cycles    =   1
     number of bfgs steps    =   0

     enthalpy new            =     -22.3792698073 Ry

     new trust radius        =       0.5000000000 bohr
     new conv_thr            =       0.0000000100 Ry

     new unit-cell volume =    655.21147 a.u.^3 (    97.09232 Ang^3 )
     density =      0.41083 g/cm^3

CELL_PARAMETERS (alat=  3.90000000)
   1.108238703  -0.000000000   0.000000000
  -0.554119351   0.959762870   0.000000000
   0.000000000   0.000000000  10.384615385

ATOMIC_POSITIONS (crystal)
C             0.3333333333        0.6666666667        0.5000000000
C             0.6666666667        0.3333333333        0.5000000000



     Writing output data file ./work/LiC390.save/
     NEW-OLD atomic charge density approx. for the potential

     negative rho (up, down):  2.823E-04 0.000E+00
     extrapolated charge    9.48378, renormalised to    8.00000

     total cpu time spent up to now is        1.6 secs

     Self-consistent Calculation

     iteration #  1     ecut=    50.00 Ry     beta= 0.70
     Davidson diagonalization with overlap
     c_bands:  5 eigenvalues not converged
     c_bands:  5 eigenvalues not converged
     c_bands:  5 eigenvalues not converged
     c_bands:  5 eigenvalues not converged
     c_bands:  5 eigenvalues not converged
     c_bands:  3 eigenvalues not converged
     c_bands:  5 eigenvalues not converged
     c_bands:  4 eigenvalues not converged
     c_bands:  5 eigenvalues not converged
     c_bands:  5 eigenvalues not converged
     c_bands:  5 eigenvalues not converged
     c_bands:  5 eigenvalues not converged
     c_bands:  5 eigenvalues not converged
     c_bands:  5 eigenvalues not converged
     c_bands:  3 eigenvalues not converged
     c_bands:  5 eigenvalues not converged
     c_bands:  5 eigenvalues not converged
     c_bands:  3 eigenvalues not converged
     c_bands:  5 eigenvalues not converged
     c_bands:  4 eigenvalues not converged
     c_bands:  5 eigenvalues not converged
     c_bands:  5 eigenvalues not converged
     c_bands:  5 eigenvalues not converged
     c_bands:  4 eigenvalues not converged
     c_bands:  4 eigenvalues not converged
     c_bands:  5 eigenvalues not converged
     ethr =  1.00E-06,  avg # of iterations = 31.4

     negative rho (up, down):  3.978E-05 0.000E+00

     total cpu time spent up to now is        2.9 secs

     total energy              =     779.25726386 Ry
     estimated scf accuracy    <     435.11899508 Ry

     iteration #  2     ecut=    50.00 Ry     beta= 0.70
     Davidson diagonalization with overlap
     c_bands:  3 eigenvalues not converged
     c_bands:  3 eigenvalues not converged
     c_bands:  2 eigenvalues not converged
     c_bands:  4 eigenvalues not converged
     c_bands:  4 eigenvalues not converged
     c_bands:  5 eigenvalues not converged
     c_bands:  4 eigenvalues not converged
     c_bands:  4 eigenvalues not converged
     c_bands:  4 eigenvalues not converged
     c_bands:  5 eigenvalues not converged
     c_bands:  5 eigenvalues not converged
     c_bands:  3 eigenvalues not converged
     c_bands:  4 eigenvalues not converged
     c_bands:  4 eigenvalues not converged
     c_bands:  2 eigenvalues not converged
     c_bands:  4 eigenvalues not converged
     c_bands:  5 eigenvalues not converged
     ethr =  1.00E-02,  avg # of iterations = 40.3

     negative rho (up, down):  1.975E-05 0.000E+00

     total cpu time spent up to now is        4.7 secs

     total energy              =    -169.84914913 Ry
     estimated scf accuracy    <     220.95055580 Ry

     iteration #  3     ecut=    50.00 Ry     beta= 0.70
     Davidson diagonalization with overlap
     ethr =  1.00E-02,  avg # of iterations =  6.1

     negative rho (up, down):  3.604E-06 0.000E+00

     total cpu time spent up to now is        4.9 secs

     total energy              =     -51.36599953 Ry
     estimated scf accuracy    <      76.52013867 Ry

     iteration #  4     ecut=    50.00 Ry     beta= 0.70
     Davidson diagonalization with overlap
     ethr =  1.00E-02,  avg # of iterations =  3.2

     negative rho (up, down):  7.903E-06 0.000E+00

     total cpu time spent up to now is        5.1 secs

     total energy              =     -67.56097641 Ry
     estimated scf accuracy    <      15.34420815 Ry

     iteration #  5     ecut=    50.00 Ry     beta= 0.70
     Davidson diagonalization with overlap
     ethr =  1.00E-02,  avg # of iterations =  1.1

     negative rho (up, down):  2.023E-06 0.000E+00

     total cpu time spent up to now is        5.2 secs

     total energy              =     -33.01149287 Ry
     estimated scf accuracy    <      23.34919311 Ry

     iteration #  6     ecut=    50.00 Ry     beta= 0.70
     Davidson diagonalization with overlap
     ethr =  1.00E-02,  avg # of iterations =  2.6

     negative rho (up, down):  2.122E-07 0.000E+00

     total cpu time spent up to now is        5.3 secs

     total energy              =     -26.40583772 Ry
     estimated scf accuracy    <       5.80536704 Ry

     iteration #  7     ecut=    50.00 Ry     beta= 0.70
     Davidson diagonalization with overlap
     ethr =  1.00E-02,  avg # of iterations =  4.1

     negative rho (up, down):  4.580E-01 0.000E+00

     total cpu time spent up to now is        5.5 secs

     total energy              =     -25.34746258 Ry
     estimated scf accuracy    <       2.11816248 Ry

     iteration #  8     ecut=    50.00 Ry     beta= 0.70
     Davidson diagonalization with overlap
     ethr =  1.00E-02,  avg # of iterations = 10.7

     negative rho (up, down):  4.288E-01 0.000E+00

     total cpu time spent up to now is        5.9 secs

     total energy              =    -105.41237251 Ry
     estimated scf accuracy    <     483.49140298 Ry

     iteration #  9     ecut=    50.00 Ry     beta= 0.70
     Davidson diagonalization with overlap
     ethr =  1.00E-02,  avg # of iterations =  1.5

     negative rho (up, down):  1.743E-03 0.000E+00

     total cpu time spent up to now is        6.0 secs

     total energy              =      88.19275727 Ry
     estimated scf accuracy    <     479.36013861 Ry

     iteration # 10     ecut=    50.00 Ry     beta= 0.70
     Davidson diagonalization with overlap
     c_bands:  2 eigenvalues not converged
     ethr =  1.00E-02,  avg # of iterations = 14.3

     negative rho (up, down):  4.820E-05 0.000E+00

     total cpu time spent up to now is        6.6 secs

     total energy              =     -29.62324753 Ry
     estimated scf accuracy    <       1.51396729 Ry

     iteration # 11     ecut=    50.00 Ry     beta= 0.70
     Davidson diagonalization with overlap
     ethr =  1.00E-02,  avg # of iterations =  3.0

     negative rho (up, down):  3.721E-05 0.000E+00

     total cpu time spent up to now is        6.8 secs

     total energy              =     -27.89854963 Ry
     estimated scf accuracy    <       3.67005906 Ry

     iteration # 12     ecut=    50.00 Ry     beta= 0.70
     Davidson diagonalization with overlap
     ethr =  1.00E-02,  avg # of iterations =  1.0

     negative rho (up, down):  5.989E-05 0.000E+00

     total cpu time spent up to now is        6.9 secs

     total energy              =     -41.97703035 Ry
     estimated scf accuracy    <       2.75386252 Ry

     iteration # 13     ecut=    50.00 Ry     beta= 0.70
     Davidson diagonalization with overlap
     ethr =  1.00E-02,  avg # of iterations =  4.0

     negative rho (up, down):  3.317E-05 0.000E+00

     total cpu time spent up to now is        7.0 secs

     total energy              =     -24.73888228 Ry
     estimated scf accuracy    <      10.01986380 Ry

     iteration # 14     ecut=    50.00 Ry     beta= 0.70
     Davidson diagonalization with overlap
     ethr =  1.00E-02,  avg # of iterations =  2.3

     negative rho (up, down):  3.671E-05 0.000E+00

     total cpu time spent up to now is        7.2 secs

     total energy              =     -29.96962638 Ry
     estimated scf accuracy    <       1.19157635 Ry

     iteration # 15     ecut=    50.00 Ry     beta= 0.70
     Davidson diagonalization with overlap
     ethr =  1.00E-02,  avg # of iterations =  1.1

     negative rho (up, down):  3.024E-05 0.000E+00

     total cpu time spent up to now is        7.3 secs

     total energy              =     -27.91721775 Ry
     estimated scf accuracy    <       3.79353659 Ry

     iteration # 16     ecut=    50.00 Ry     beta= 0.70
     Davidson diagonalization with overlap
     ethr =  1.00E-02,  avg # of iterations =  1.0

     negative rho (up, down):  5.655E-05 0.000E+00

     total cpu time spent up to now is        7.4 secs

     total energy              =     -25.57387501 Ry
     estimated scf accuracy    <       2.73785310 Ry

     iteration # 17     ecut=    50.00 Ry     beta= 0.70
     Davidson diagonalization with overlap
     ethr =  1.00E-02,  avg # of iterations =  1.0

     negative rho (up, down):  1.044E-04 0.000E+00

     total cpu time spent up to now is        7.5 secs

     total energy              =     -22.70564972 Ry
     estimated scf accuracy    <       1.54561277 Ry

     iteration # 18     ecut=    50.00 Ry     beta= 0.70
     Davidson diagonalization with overlap
     ethr =  1.00E-02,  avg # of iterations =  2.7

     negative rho (up, down):  2.627E-03 0.000E+00

     total cpu time spent up to now is        7.7 secs

     total energy              =     -22.71815743 Ry
     estimated scf accuracy    <       0.11159469 Ry

     iteration # 19     ecut=    50.00 Ry     beta= 0.70
     Davidson diagonalization with overlap
     ethr =  1.39E-03,  avg # of iterations = 10.4

     negative rho (up, down):  4.258E-03 0.000E+00

     total cpu time spent up to now is        7.9 secs

     total energy              =     -22.72691651 Ry
     estimated scf accuracy    <       0.08734098 Ry

     iteration # 20     ecut=    50.00 Ry     beta= 0.70
     Davidson diagonalization with overlap
     ethr =  1.09E-03,  avg # of iterations =  1.0

     negative rho (up, down):  1.042E-02 0.000E+00

     total cpu time spent up to now is        8.0 secs

     total energy              =     -22.68179459 Ry
     estimated scf accuracy    <       0.08390758 Ry

     iteration # 21     ecut=    50.00 Ry     beta= 0.70
     Davidson diagonalization with overlap
     ethr =  1.05E-03,  avg # of iterations =  2.1

     negative rho (up, down):  1.296E-02 0.000E+00

     total cpu time spent up to now is        8.2 secs

     total energy              =     -22.69376419 Ry
     estimated scf accuracy    <       0.00481962 Ry

     iteration # 22     ecut=    50.00 Ry     beta= 0.70
     Davidson diagonalization with overlap
     ethr =  6.02E-05,  avg # of iterations =  4.2

     negative rho (up, down):  7.059E-03 0.000E+00

     total cpu time spent up to now is        8.3 secs

     total energy              =     -22.69740182 Ry
     estimated scf accuracy    <       0.00302122 Ry

     iteration # 23     ecut=    50.00 Ry     beta= 0.70
     Davidson diagonalization with overlap
     ethr =  3.78E-05,  avg # of iterations =  4.9

     negative rho (up, down):  7.004E-03 0.000E+00

     total cpu time spent up to now is        8.5 secs

     total energy              =     -22.69694666 Ry
     estimated scf accuracy    <       0.01098705 Ry

     iteration # 24     ecut=    50.00 Ry     beta= 0.70
     Davidson diagonalization with overlap
     ethr =  3.78E-05,  avg # of iterations =  1.0

     negative rho (up, down):  6.307E-03 0.000E+00

     total cpu time spent up to now is        8.6 secs

     total energy              =     -22.69193485 Ry
     estimated scf accuracy    <       0.00868138 Ry

     iteration # 25     ecut=    50.00 Ry     beta= 0.70
     Davidson diagonalization with overlap
     ethr =  3.78E-05,  avg # of iterations =  4.8

     negative rho (up, down):  4.062E-03 0.000E+00

     total cpu time spent up to now is        8.8 secs

     total energy              =     -22.69269836 Ry
     estimated scf accuracy    <       0.00052098 Ry

     iteration # 26     ecut=    50.00 Ry     beta= 0.70
     Davidson diagonalization with overlap
     c_bands:  1 eigenvalues not converged
     ethr =  6.51E-06,  avg # of iterations =  8.4

     negative rho (up, down):  1.435E-03 0.000E+00

     total cpu time spent up to now is        9.1 secs

     total energy              =     -22.69256262 Ry
     estimated scf accuracy    <       0.00017817 Ry

     iteration # 27     ecut=    50.00 Ry     beta= 0.70
     Davidson diagonalization with overlap
     c_bands:  1 eigenvalues not converged
     ethr =  2.23E-06,  avg # of iterations =  8.9

     negative rho (up, down):  5.329E-04 0.000E+00

     total cpu time spent up to now is        9.3 secs

     total energy              =     -22.69255750 Ry
     estimated scf accuracy    <       0.00001095 Ry

     iteration # 28     ecut=    50.00 Ry     beta= 0.70
     Davidson diagonalization with overlap
     ethr =  1.37E-07,  avg # of iterations =  6.3

     negative rho (up, down):  1.128E-04 0.000E+00

     total cpu time spent up to now is        9.5 secs

     total energy              =     -22.69255143 Ry
     estimated scf accuracy    <       0.00000177 Ry

     iteration # 29     ecut=    50.00 Ry     beta= 0.70
     Davidson diagonalization with overlap
     ethr =  2.22E-08,  avg # of iterations =  5.4

     negative rho (up, down):  1.744E-06 0.000E+00

     total cpu time spent up to now is        9.7 secs

     total energy              =     -22.69255086 Ry
     estimated scf accuracy    <       0.00000006 Ry

     iteration # 30     ecut=    50.00 Ry     beta= 0.70
     Davidson diagonalization with overlap
     ethr =  7.56E-10,  avg # of iterations =  5.7

     total cpu time spent up to now is        9.9 secs

     End of self-consistent calculation

          k = 0.0000 0.0000 0.0000 (  3241 PWs)   bands (ev):

   -24.9861 -12.8068  -6.3880  -6.3880  -1.0239  -0.2087   0.5781   0.9358

          k = 0.0000 0.0695 0.0000 (  3253 PWs)   bands (ev):

   -24.8672 -12.6581  -6.8551  -6.6685  -0.8589  -0.0402   0.7471   1.1047

          k = 0.0000 0.1389 0.0000 (  3239 PWs)   bands (ev):

   -24.5106 -12.2085  -8.1133  -7.3720  -0.3630   0.4652   1.2545   1.6113

          k = 0.0000 0.2084 0.0000 (  3216 PWs)   bands (ev):

   -23.9187 -11.4689  -9.8382  -8.2445   0.4639   1.3056   2.1005   2.4540

          k = 0.0000 0.2778 0.0000 (  3184 PWs)   bands (ev):

   -23.0952 -11.8168 -10.4506  -9.0730   1.6202   2.4703   3.2846   3.6167

          k = 0.0000 0.3473 0.0000 (  3166 PWs)   bands (ev):

   -22.0452 -13.8370  -9.7583  -9.1939   2.3263   3.1020   4.0408   4.8048

          k = 0.0000 0.4168 0.0000 (  3156 PWs)   bands (ev):

   -20.7764 -15.7924 -10.2445  -7.7916   0.1291   4.8967   5.8593   6.3140

          k = 0.0000 0.4862 0.0000 (  3160 PWs)   bands (ev):

   -19.3066 -17.6177 -10.5013  -6.5863  -1.5023   6.2089   7.0735   8.0141

          k = 0.0602 0.1042 0.0000 (  3245 PWs)   bands (ev):

   -24.6295 -12.3585  -7.6506  -7.2304  -0.5283   0.2968   1.0854   1.4425

          k = 0.0602 0.1737 0.0000 (  3221 PWs)   bands (ev):

   -24.1551 -11.7634  -9.0360  -8.1212   0.1338   0.9700   1.7623   2.1174

          k = 0.0602 0.2431 0.0000 (  3197 PWs)   bands (ev):

   -23.4477 -10.8836 -10.8233  -9.0277   1.1262   1.9757   2.7777   3.1260

          k = 0.0602 0.3126 0.0000 (  3187 PWs)   bands (ev):

   -22.5113 -12.7974  -9.8156  -9.7419   2.4464   3.1752   3.6006   4.1308

          k = 0.0602 0.3820 0.0000 (  3170 PWs)   bands (ev):

   -21.3528 -14.7698 -10.4195  -8.3929   1.1652   4.0891   5.0178   5.8179

          k = 0.0602 0.4515 0.0000 (  3156 PWs)   bands (ev):

   -19.9829 -16.6537 -10.7841  -7.0086  -0.8195   6.0286   6.8191   7.0059

          k = 0.0602 0.5210 0.0000 (  3152 PWs)   bands (ev):

   -18.5489 -18.2639 -10.9128  -6.2570  -1.7764   6.7332   8.2666   8.4103

          k = 0.1203 0.2084 0.0000 (  3189 PWs)   bands (ev):

   -23.5648 -11.0278 -10.2115  -9.3058   0.9622   1.8096   2.6090   2.9595

          k = 0.1203 0.2778 0.0000 (  3190 PWs)   bands (ev):

   -22.7456 -11.8071 -10.3775 -10.0192   2.1195   2.9760   3.7939   4.1005

          k = 0.1203 0.3473 0.0000 (  3184 PWs)   bands (ev):

   -21.7011 -13.6597 -11.1417  -8.7692   2.0719   3.6021   4.4925   5.3162

          k = 0.1203 0.4168 0.0000 (  3171 PWs)   bands (ev):

   -20.4422 -15.5347 -11.6459  -7.3660   0.0139   5.4022   6.3011   7.1726

          k = 0.1203 0.4862 0.0000 (  3156 PWs)   bands (ev):

   -18.9887 -17.3131 -11.9019  -6.1371  -1.5661   7.4943   8.1669   8.3436

          k = 0.1805 0.3126 0.0000 (  3194 PWs)   bands (ev):

   -21.8179 -12.8662 -11.8369  -8.8977   2.4663   3.4393   4.3039   5.1481

          k = 0.1805 0.3820 0.0000 (  3186 PWs)   bands (ev):

   -20.6734 -14.3773 -12.7470  -7.5637   0.6280   5.0781   5.9213   6.8385

          k = 0.1805 0.4515 0.0000 (  3169 PWs)   bands (ev):

   -19.3284 -16.0998 -13.1790  -6.1605  -1.1161   7.0207   7.6611   8.8615

          k = 0.1805 0.5210 0.0000 (  3160 PWs)   bands (ev):

   -17.9756 -17.5942 -13.3172  -5.3390  -2.0578   8.4782   9.1408   9.3089

          k = 0.2406 0.4168 0.0000 (  3186 PWs)   bands (ev):

   -19.4435 -15.1141 -14.2090  -6.1868  -0.8819   6.8579   7.3731   8.6939

          k = 0.2406 0.4862 0.0000 (  3174 PWs)   bands (ev):

   -18.0489 -16.4586 -14.7685  -4.8498  -2.2793   7.7462   8.8947  10.3755

          k = 0.3008 0.5210 0.0000 (  3192 PWs)   bands (ev):

   -16.8293 -16.8293 -15.8529  -3.5309  -3.5309   7.4528  10.7245  10.7247

     the Fermi energy is    -3.5309 ev

!    total energy              =     -22.69255091 Ry
     estimated scf accuracy    <          4.7E-09 Ry
     smearing contrib. (-TS)   =      -0.00005015 Ry
     internal energy E=F+TS    =     -22.69250076 Ry

     The total energy is F=E-TS. E is the sum of the following terms:
     one-electron contribution =    -450.38761604 Ry
     hartree contribution      =     225.98893361 Ry
     xc contribution           =      -7.34868400 Ry
     ewald contribution        =     209.05486566 Ry

     convergence has been achieved in  30 iterations

     Forces acting on atoms (cartesian axes, Ry/au):

     atom    1 type  1   force =     0.00000000    0.00000000    0.00000000
     atom    2 type  1   force =     0.00000000    0.00000000    0.00000000

     Total force =     0.000000     Total SCF correction =     0.000000


     Computing stress (Cartesian axis) and pressure

          total   stress  (Ry/bohr**3)                   (kbar)     P=       92.76
   0.00103128   0.00000000   0.00000000          151.71        0.00        0.00
  -0.00000000   0.00103128   0.00000000           -0.00      151.71        0.00
   0.00000000   0.00000000  -0.00017087            0.00        0.00      -25.14

     Energy error            =      3.1E-01
     Gradient error          =      0.0E+00
     Cell gradient error     =      1.0E-03


     number of scf cycles    =   2
     number of bfgs steps    =   1

     enthalpy old            =     -22.3792698073 Ry
     enthalpy new            =     -22.6925509130 Ry

     CASE: enthalpy_new < enthalpy_old

     new trust radius        =       0.1653956080 bohr
     new conv_thr            =            1.0E-10 Ry

     new unit-cell volume =    698.23185 a.u.^3 (   103.46728 Ang^3 )
     density =      0.38552 g/cm^3

CELL_PARAMETERS (alat=  3.90000000)
   1.144043115  -0.000000000   0.000000000
  -0.572021558   0.990770401   0.000000000
   0.000000000   0.000000000  10.384615385

ATOMIC_POSITIONS (crystal)
C             0.3333333333        0.6666666667        0.5000000000
C             0.6666666667        0.3333333333        0.5000000000



     Writing output data file ./work/LiC390.save/
     NEW-OLD atomic charge density approx. for the potential

     negative rho (up, down):  1.514E-04 0.000E+00
     extrapolated charge    8.49205, renormalised to    8.00000

     total cpu time spent up to now is       10.0 secs

     Self-consistent Calculation

     iteration #  1     ecut=    50.00 Ry     beta= 0.70
     Davidson diagonalization with overlap
     c_bands:  1 eigenvalues not converged
     c_bands:  1 eigenvalues not converged
     c_bands:  2 eigenvalues not converged
     c_bands:  3 eigenvalues not converged
     c_bands:  2 eigenvalues not converged
     c_bands:  4 eigenvalues not converged
     c_bands:  1 eigenvalues not converged
     c_bands:  2 eigenvalues not converged
     c_bands:  2 eigenvalues not converged
     c_bands:  2 eigenvalues not converged
     c_bands:  3 eigenvalues not converged
     c_bands:  4 eigenvalues not converged
     c_bands:  5 eigenvalues not converged
     c_bands:  2 eigenvalues not converged
     c_bands:  2 eigenvalues not converged
     c_bands:  3 eigenvalues not converged
     c_bands:  4 eigenvalues not converged
     c_bands:  5 eigenvalues not converged
     c_bands:  3 eigenvalues not converged
     c_bands:  5 eigenvalues not converged
     c_bands:  5 eigenvalues not converged
     c_bands:  5 eigenvalues not converged
     c_bands:  4 eigenvalues not converged
     c_bands:  4 eigenvalues not converged
     c_bands:  5 eigenvalues not converged
     ethr =  1.00E-06,  avg # of iterations = 19.7

     negative rho (up, down):  8.352E-06 0.000E+00

     total cpu time spent up to now is       10.8 secs

     total energy              =     650.52973647 Ry
     estimated scf accuracy    <     373.10560140 Ry

     iteration #  2     ecut=    50.00 Ry     beta= 0.70
     Davidson diagonalization with overlap
     c_bands:  5 eigenvalues not converged
     c_bands:  1 eigenvalues not converged
     c_bands:  1 eigenvalues not converged
     c_bands:  1 eigenvalues not converged
     c_bands:  5 eigenvalues not converged
     c_bands:  2 eigenvalues not converged
     c_bands:  2 eigenvalues not converged
     c_bands:  1 eigenvalues not converged
     c_bands:  1 eigenvalues not converged
     c_bands:  2 eigenvalues not converged
     c_bands:  1 eigenvalues not converged
     c_bands:  5 eigenvalues not converged
     c_bands:  1 eigenvalues not converged
     ethr =  1.00E-02,  avg # of iterations = 37.4

     negative rho (up, down):  3.283E-06 0.000E+00

     total cpu time spent up to now is       12.4 secs

     total energy              =    -146.45567063 Ry
     estimated scf accuracy    <     189.88551612 Ry

     iteration #  3     ecut=    50.00 Ry     beta= 0.70
     Davidson diagonalization with overlap
     ethr =  1.00E-02,  avg # of iterations =  4.4

     negative rho (up, down):  3.158E-07 0.000E+00

     total cpu time spent up to now is       12.6 secs

     total energy              =     -53.54644414 Ry
     estimated scf accuracy    <      65.60350287 Ry

     iteration #  4     ecut=    50.00 Ry     beta= 0.70
     Davidson diagonalization with overlap
     ethr =  1.00E-02,  avg # of iterations =  3.4

     negative rho (up, down):  4.088E-07 0.000E+00

     total cpu time spent up to now is       12.7 secs

     total energy              =     -53.37841055 Ry
     estimated scf accuracy    <      16.58564051 Ry

     iteration #  5     ecut=    50.00 Ry     beta= 0.70
     Davidson diagonalization with overlap
     ethr =  1.00E-02,  avg # of iterations =  1.3

     total cpu time spent up to now is       12.9 secs

     total energy              =     -22.20578265 Ry
     estimated scf accuracy    <      16.34973699 Ry

     iteration #  6     ecut=    50.00 Ry     beta= 0.70
     Davidson diagonalization with overlap
     ethr =  1.00E-02,  avg # of iterations =  3.6

     negative rho (up, down):  6.067E-08 0.000E+00

     total cpu time spent up to now is       13.0 secs

     total energy              =     -32.54899585 Ry
     estimated scf accuracy    <       0.13455786 Ry

     iteration #  7     ecut=    50.00 Ry     beta= 0.70
     Davidson diagonalization with overlap
     c_bands:  1 eigenvalues not converged
     c_bands:  2 eigenvalues not converged
     ethr =  1.68E-03,  avg # of iterations = 12.1

     negative rho (up, down):  6.958E-08 0.000E+00

     total cpu time spent up to now is       13.4 secs

     total energy              =     -34.01102815 Ry
     estimated scf accuracy    <       5.46662987 Ry

     iteration #  8     ecut=    50.00 Ry     beta= 0.70
     Davidson diagonalization with overlap
     ethr =  1.68E-03,  avg # of iterations =  1.0

     negative rho (up, down):  7.222E-08 0.000E+00

     total cpu time spent up to now is       13.5 secs

     total energy              =     -34.34307875 Ry
     estimated scf accuracy    <       6.00353969 Ry

     iteration #  9     ecut=    50.00 Ry     beta= 0.70
     Davidson diagonalization with overlap
     ethr =  1.68E-03,  avg # of iterations =  1.0

     negative rho (up, down):  1.232E-07 0.000E+00

     total cpu time spent up to now is       13.6 secs

     total energy              =     -35.80400208 Ry
     estimated scf accuracy    <       6.17622561 Ry

     iteration # 10     ecut=    50.00 Ry     beta= 0.70
     Davidson diagonalization with overlap
     ethr =  1.68E-03,  avg # of iterations =  1.0

     total cpu time spent up to now is       13.7 secs

     total energy              =     -22.49310317 Ry
     estimated scf accuracy    <       6.94433561 Ry

     iteration # 11     ecut=    50.00 Ry     beta= 0.70
     Davidson diagonalization with overlap
     ethr =  1.68E-03,  avg # of iterations = 10.6

     total cpu time spent up to now is       14.0 secs

     total energy              =     -22.73576745 Ry
     estimated scf accuracy    <       0.08126628 Ry

     iteration # 12     ecut=    50.00 Ry     beta= 0.70
     Davidson diagonalization with overlap
     ethr =  1.02E-03,  avg # of iterations =  1.3

     negative rho (up, down):  1.007E-04 0.000E+00

     total cpu time spent up to now is       14.1 secs

     total energy              =     -22.68631658 Ry
     estimated scf accuracy    <       0.08033107 Ry

     iteration # 13     ecut=    50.00 Ry     beta= 0.70
     Davidson diagonalization with overlap
     ethr =  1.00E-03,  avg # of iterations =  3.6

     negative rho (up, down):  3.913E-05 0.000E+00

     total cpu time spent up to now is       14.3 secs

     total energy              =     -22.71152271 Ry
     estimated scf accuracy    <       0.10223331 Ry

     iteration # 14     ecut=    50.00 Ry     beta= 0.70
     Davidson diagonalization with overlap
     ethr =  1.00E-03,  avg # of iterations =  1.0

     negative rho (up, down):  4.751E-05 0.000E+00

     total cpu time spent up to now is       14.4 secs

     total energy              =     -22.72029682 Ry
     estimated scf accuracy    <       0.03236577 Ry

     iteration # 15     ecut=    50.00 Ry     beta= 0.70
     Davidson diagonalization with overlap
     ethr =  4.05E-04,  avg # of iterations =  2.3

     negative rho (up, down):  2.099E-05 0.000E+00

     total cpu time spent up to now is       14.6 secs

     total energy              =     -22.72290693 Ry
     estimated scf accuracy    <       0.00191058 Ry

     iteration # 16     ecut=    50.00 Ry     beta= 0.70
     Davidson diagonalization with overlap
     ethr =  2.39E-05,  avg # of iterations =  4.9

     total cpu time spent up to now is       14.8 secs

     total energy              =     -22.72073489 Ry
     estimated scf accuracy    <       0.00701089 Ry

     iteration # 17     ecut=    50.00 Ry     beta= 0.70
     Davidson diagonalization with overlap
     ethr =  2.39E-05,  avg # of iterations =  3.1

     total cpu time spent up to now is       14.9 secs

     total energy              =     -22.72161957 Ry
     estimated scf accuracy    <       0.00042871 Ry

     iteration # 18     ecut=    50.00 Ry     beta= 0.70
     Davidson diagonalization with overlap
     c_bands:  1 eigenvalues not converged
     ethr =  5.36E-06,  avg # of iterations =  3.9

     negative rho (up, down):  8.093E-05 0.000E+00

     total cpu time spent up to now is       15.1 secs

     total energy              =     -22.72125697 Ry
     estimated scf accuracy    <       0.00058356 Ry

     iteration # 19     ecut=    50.00 Ry     beta= 0.70
     Davidson diagonalization with overlap
     ethr =  5.36E-06,  avg # of iterations =  5.7

     negative rho (up, down):  5.187E-06 0.000E+00

     total cpu time spent up to now is       15.3 secs

     total energy              =     -22.72136425 Ry
     estimated scf accuracy    <       0.00006996 Ry

     iteration # 20     ecut=    50.00 Ry     beta= 0.70
     Davidson diagonalization with overlap
     ethr =  8.75E-07,  avg # of iterations =  3.9

     total cpu time spent up to now is       15.4 secs

     total energy              =     -22.72137634 Ry
     estimated scf accuracy    <       0.00000099 Ry

     iteration # 21     ecut=    50.00 Ry     beta= 0.70
     Davidson diagonalization with overlap
     ethr =  1.23E-08,  avg # of iterations =  2.0

     total cpu time spent up to now is       15.6 secs

     total energy              =     -22.72137649 Ry
     estimated scf accuracy    <       0.00000001 Ry

     iteration # 22     ecut=    50.00 Ry     beta= 0.70
     Davidson diagonalization with overlap
     ethr =  1.54E-10,  avg # of iterations =  2.8

     total cpu time spent up to now is       15.7 secs

     total energy              =     -22.72137650 Ry
     estimated scf accuracy    <          1.9E-09 Ry

     iteration # 23     ecut=    50.00 Ry     beta= 0.70
     Davidson diagonalization with overlap
     ethr =  2.39E-11,  avg # of iterations =  2.0

     total cpu time spent up to now is       15.8 secs

     total energy              =     -22.72137650 Ry
     estimated scf accuracy    <          1.6E-10 Ry

     iteration # 24     ecut=    50.00 Ry     beta= 0.70
     Davidson diagonalization with overlap
     ethr =  1.98E-12,  avg # of iterations =  2.2

     total cpu time spent up to now is       16.0 secs

     End of self-consistent calculation

          k = 0.0000 0.0000 0.0000 (  3241 PWs)   bands (ev):

   -24.5166 -12.4074  -6.7630  -6.7630  -1.0129  -0.2211   0.5446   0.9061

          k = 0.0000 0.0673 0.0000 (  3253 PWs)   bands (ev):

   -24.4037 -12.2698  -7.2108  -7.0167  -0.8578  -0.0632   0.7033   1.0643

          k = 0.0000 0.1346 0.0000 (  3239 PWs)   bands (ev):

   -24.0647 -11.8525  -8.4161  -7.6562  -0.3918   0.4106   1.1795   1.5390

          k = 0.0000 0.2019 0.0000 (  3216 PWs)   bands (ev):

   -23.5024 -11.1674 -10.0593  -8.4543   0.3848   1.1981   1.9732   2.3282

          k = 0.0000 0.2692 0.0000 (  3184 PWs)   bands (ev):

   -22.7202 -11.9487 -10.2246  -9.2124   1.4703   2.2845   3.0839   3.3895

          k = 0.0000 0.3364 0.0000 (  3166 PWs)   bands (ev):

   -21.7237 -13.8747  -9.8414  -9.0645   1.6072   2.8601   3.7487   4.5043

          k = 0.0000 0.4037 0.0000 (  3156 PWs)   bands (ev):

   -20.5227 -15.7324 -10.2897  -7.7764  -0.3999   4.5148   5.0088   5.4600

          k = 0.0000 0.4710 0.0000 (  3160 PWs)   bands (ev):

   -19.1581 -17.4373 -10.5289  -6.6805  -1.8770   4.8489   6.5657   7.4738

          k = 0.0583 0.1009 0.0000 (  3245 PWs)   bands (ev):

   -24.1778 -11.9919  -7.9771  -7.5274  -0.5471   0.2527   1.0207   1.3809

          k = 0.0583 0.1682 0.0000 (  3221 PWs)   bands (ev):

   -23.7270 -11.4402  -9.3036  -8.3427   0.0747   0.8836   1.6559   2.0131

          k = 0.0583 0.2355 0.0000 (  3197 PWs)   bands (ev):

   -23.0551 -11.0049 -10.6253  -9.1788   1.0064   1.8258   2.6086   2.9567

          k = 0.0583 0.3028 0.0000 (  3187 PWs)   bands (ev):

   -22.1659 -12.8876  -9.9087  -9.5699   2.2455   2.5524   3.1522   3.8775

          k = 0.0583 0.3701 0.0000 (  3170 PWs)   bands (ev):

   -21.0676 -14.7635 -10.4703  -8.3270   0.5337   3.7851   4.6710   5.4178

          k = 0.0583 0.4374 0.0000 (  3156 PWs)   bands (ev):

   -19.7768 -16.5451 -10.8069  -7.0603  -1.2695   5.3401   5.7014   6.5310

          k = 0.0583 0.5047 0.0000 (  3152 PWs)   bands (ev):

   -18.5790 -17.9114 -10.9274  -6.3816  -2.1313   5.3446   7.6898   7.8397

          k = 0.1165 0.2019 0.0000 (  3189 PWs)   bands (ev):

   -23.1661 -10.7587 -10.4450  -9.4278   0.8523   1.6705   2.4503   2.8021

          k = 0.1165 0.2692 0.0000 (  3190 PWs)   bands (ev):

   -22.3885 -11.9680 -10.4344  -9.8257   1.9384   2.7576   3.2791   3.5619

          k = 0.1165 0.3364 0.0000 (  3184 PWs)   bands (ev):

   -21.3975 -13.7211 -11.1628  -8.6721   1.3324   3.3295   4.1790   4.9896

          k = 0.1165 0.4037 0.0000 (  3171 PWs)   bands (ev):

   -20.2066 -15.4946 -11.6422  -7.3826  -0.5387   5.0165   5.8695   6.6979

          k = 0.1165 0.4710 0.0000 (  3156 PWs)   bands (ev):

   -18.8593 -17.1495 -11.8856  -6.2638  -1.9685   6.6901   7.0277   7.7591

          k = 0.1748 0.3028 0.0000 (  3194 PWs)   bands (ev):

   -21.5083 -13.0242 -11.7749  -8.7901   1.6705   3.1766   4.0054   4.8321

          k = 0.1748 0.3701 0.0000 (  3186 PWs)   bands (ev):

   -20.4242 -14.4407 -12.6603  -7.5613  -0.0104   4.7134   5.5144   6.4174

          k = 0.1748 0.4374 0.0000 (  3169 PWs)   bands (ev):

   -19.1594 -16.0406 -13.0960  -6.2752  -1.5993   6.5322   7.1193   8.3101

          k = 0.1748 0.5047 0.0000 (  3160 PWs)   bands (ev):

   -18.0167 -17.3117 -13.2345  -5.5297  -2.4511   7.8556   8.4970   8.5127

          k = 0.2331 0.4037 0.0000 (  3186 PWs)   bands (ev):

   -19.2645 -15.2165 -13.9743  -6.2954  -1.4075   6.3801   6.8554   8.1224

          k = 0.2331 0.4710 0.0000 (  3174 PWs)   bands (ev):

   -17.9780 -16.4162 -14.5492  -5.0711  -2.6910   7.2176   8.2758   9.7210

          k = 0.2914 0.5047 0.0000 (  3192 PWs)   bands (ev):

   -16.8938 -16.8938 -15.3838  -3.8553  -3.8553   6.9677   9.8853   9.8856

     the Fermi energy is    -3.8553 ev

!    total energy              =     -22.72137650 Ry
     estimated scf accuracy    <          9.5E-12 Ry
     smearing contrib. (-TS)   =      -0.00005015 Ry
     internal energy E=F+TS    =     -22.72132635 Ry

     The total energy is F=E-TS. E is the sum of the following terms:
     one-electron contribution =    -422.23947296 Ry
     hartree contribution      =     211.83537206 Ry
     xc contribution           =      -7.19962341 Ry
     ewald contribution        =     194.88239796 Ry

     convergence has been achieved in  24 iterations

     Forces acting on atoms (cartesian axes, Ry/au):

     atom    1 type  1   force =    -0.00000000   -0.00000000    0.00000000
     atom    2 type  1   force =     0.00000000    0.00000000    0.00000000

     Total force =     0.000000     Total SCF correction =     0.000000


     Computing stress (Cartesian axis) and pressure

          total   stress  (Ry/bohr**3)                   (kbar)     P=       25.33
   0.00034278   0.00000000  -0.00000000           50.42        0.00       -0.00
  -0.00000000   0.00034278   0.00000000           -0.00       50.42        0.00
   0.00000000  -0.00000000  -0.00016906            0.00       -0.00      -24.87

     Energy error            =      2.9E-02
     Gradient error          =      1.5E-26
     Cell gradient error     =      3.4E-04


     number of scf cycles    =   3
     number of bfgs steps    =   2

     enthalpy old            =     -22.6925509130 Ry
     enthalpy new            =     -22.7213765002 Ry

     CASE: enthalpy_new < enthalpy_old

     new trust radius        =       0.0863931397 bohr
     new conv_thr            =            1.0E-10 Ry

     new unit-cell volume =    721.24703 a.u.^3 (   106.87778 Ang^3 )
     density =      0.37322 g/cm^3

CELL_PARAMETERS (alat=  3.90000000)
   1.162745278  -0.000000000   0.000000000
  -0.581372639   1.006966949   0.000000000
   0.000000000   0.000000000  10.384615385

ATOMIC_POSITIONS (crystal)
C             0.3333333333        0.6666666667        0.5000000000
C             0.6666666667        0.3333333333        0.5000000000



     Writing output data file ./work/LiC390.save/
     NEW-OLD atomic charge density approx. for the potential

     negative rho (up, down):  7.191E-05 0.000E+00
     extrapolated charge    8.25484, renormalised to    8.00000

     total cpu time spent up to now is       16.0 secs

     Self-consistent Calculation

     iteration #  1     ecut=    50.00 Ry     beta= 0.70
     Davidson diagonalization with overlap
     c_bands:  2 eigenvalues not converged
     c_bands:  2 eigenvalues not converged
     c_bands:  4 eigenvalues not converged
     c_bands:  1 eigenvalues not converged
     c_bands:  2 eigenvalues not converged
     c_bands:  2 eigenvalues not converged
     c_bands:  1 eigenvalues not converged
     c_bands:  3 eigenvalues not converged
     c_bands:  4 eigenvalues not converged
     c_bands:  1 eigenvalues not converged
     c_bands:  1 eigenvalues not converged
     c_bands:  2 eigenvalues not converged
     c_bands:  2 eigenvalues not converged
     c_bands:  3 eigenvalues not converged
     c_bands:  3 eigenvalues not converged
     c_bands:  5 eigenvalues not converged
     ethr =  1.00E-06,  avg # of iterations = 18.3

     total cpu time spent up to now is       16.7 secs

     total energy              =     535.28157534 Ry
     estimated scf accuracy    <     317.21140523 Ry

     iteration #  2     ecut=    50.00 Ry     beta= 0.70
     Davidson diagonalization with overlap
     c_bands:  3 eigenvalues not converged
     c_bands:  1 eigenvalues not converged
     c_bands:  2 eigenvalues not converged
     c_bands:  5 eigenvalues not converged
     c_bands:  1 eigenvalues not converged
     c_bands:  4 eigenvalues not converged
     c_bands:  4 eigenvalues not converged
     c_bands:  4 eigenvalues not converged
     c_bands:  2 eigenvalues not converged
     c_bands:  3 eigenvalues not converged
     c_bands:  4 eigenvalues not converged
     c_bands:  5 eigenvalues not converged
     c_bands:  1 eigenvalues not converged
     c_bands:  5 eigenvalues not converged
     c_bands:  3 eigenvalues not converged
     c_bands:  2 eigenvalues not converged
     c_bands:  4 eigenvalues not converged
     c_bands:  5 eigenvalues not converged
     ethr =  1.00E-02,  avg # of iterations = 33.2

     total cpu time spent up to now is       18.0 secs

     total energy              =    -124.49038205 Ry
     estimated scf accuracy    <     161.82471324 Ry

     iteration #  3     ecut=    50.00 Ry     beta= 0.70
     Davidson diagonalization with overlap
     c_bands:  1 eigenvalues not converged
     ethr =  1.00E-02,  avg # of iterations =  7.0

     total cpu time spent up to now is       18.2 secs

     total energy              =     -51.95027684 Ry
     estimated scf accuracy    <      55.94949629 Ry

     iteration #  4     ecut=    50.00 Ry     beta= 0.70
     Davidson diagonalization with overlap
     ethr =  1.00E-02,  avg # of iterations =  4.0

     total cpu time spent up to now is       18.4 secs

     total energy              =     -45.93348206 Ry
     estimated scf accuracy    <      16.04076831 Ry

     iteration #  5     ecut=    50.00 Ry     beta= 0.70
     Davidson diagonalization with overlap
     ethr =  1.00E-02,  avg # of iterations =  1.0

     total cpu time spent up to now is       18.5 secs

     total energy              =     -23.60915042 Ry
     estimated scf accuracy    <      12.66550369 Ry

     iteration #  6     ecut=    50.00 Ry     beta= 0.70
     Davidson diagonalization with overlap
     ethr =  1.00E-02,  avg # of iterations =  3.6

     total cpu time spent up to now is       18.7 secs

     total energy              =     -29.25237060 Ry
     estimated scf accuracy    <       0.68015886 Ry

     iteration #  7     ecut=    50.00 Ry     beta= 0.70
     Davidson diagonalization with overlap
     ethr =  8.50E-03,  avg # of iterations =  2.0

     total cpu time spent up to now is       18.8 secs

     total energy              =     -29.85393995 Ry
     estimated scf accuracy    <       3.53954895 Ry

     iteration #  8     ecut=    50.00 Ry     beta= 0.70
     Davidson diagonalization with overlap
     ethr =  8.50E-03,  avg # of iterations =  1.0

     total cpu time spent up to now is       18.9 secs

     total energy              =     -29.97714568 Ry
     estimated scf accuracy    <       3.85055957 Ry

     iteration #  9     ecut=    50.00 Ry     beta= 0.70
     Davidson diagonalization with overlap
     ethr =  8.50E-03,  avg # of iterations =  1.0

     total cpu time spent up to now is       19.0 secs

     total energy              =     -28.88530447 Ry
     estimated scf accuracy    <       3.92593228 Ry

     iteration # 10     ecut=    50.00 Ry     beta= 0.70
     Davidson diagonalization with overlap
     ethr =  8.50E-03,  avg # of iterations =  1.0

     negative rho (up, down):  4.082E-03 0.000E+00

     total cpu time spent up to now is       19.1 secs

     total energy              =     -22.56609048 Ry
     estimated scf accuracy    <       3.35324870 Ry

     iteration # 11     ecut=    50.00 Ry     beta= 0.70
     Davidson diagonalization with overlap
     ethr =  8.50E-03,  avg # of iterations =  5.7

     negative rho (up, down):  4.693E-03 0.000E+00

     total cpu time spent up to now is       19.3 secs

     total energy              =     -22.72887304 Ry
     estimated scf accuracy    <       0.01264933 Ry

     iteration # 12     ecut=    50.00 Ry     beta= 0.70
     Davidson diagonalization with overlap
     ethr =  1.58E-04,  avg # of iterations = 12.3

     negative rho (up, down):  5.484E-03 0.000E+00

     total cpu time spent up to now is       19.7 secs

     total energy              =     -22.72793022 Ry
     estimated scf accuracy    <       0.01041379 Ry

     iteration # 13     ecut=    50.00 Ry     beta= 0.70
     Davidson diagonalization with overlap
     ethr =  1.30E-04,  avg # of iterations =  1.5

     negative rho (up, down):  6.210E-03 0.000E+00

     total cpu time spent up to now is       19.8 secs

     total energy              =     -22.72875724 Ry
     estimated scf accuracy    <       0.00655846 Ry

     iteration # 14     ecut=    50.00 Ry     beta= 0.70
     Davidson diagonalization with overlap
     ethr =  8.20E-05,  avg # of iterations =  2.8

     negative rho (up, down):  2.465E-03 0.000E+00

     total cpu time spent up to now is       19.9 secs

     total energy              =     -22.73728315 Ry
     estimated scf accuracy    <       0.00808437 Ry

     iteration # 15     ecut=    50.00 Ry     beta= 0.70
     Davidson diagonalization with overlap
     ethr =  8.20E-05,  avg # of iterations = 11.3

     negative rho (up, down):  1.684E-03 0.000E+00

     total cpu time spent up to now is       20.2 secs

     total energy              =     -22.79732539 Ry
     estimated scf accuracy    <       0.07093288 Ry

     iteration # 16     ecut=    50.00 Ry     beta= 0.70
     Davidson diagonalization with overlap
     ethr =  8.20E-05,  avg # of iterations =  5.6

     negative rho (up, down):  2.109E-02 0.000E+00

     total cpu time spent up to now is       20.4 secs

     total energy              =     -23.44907039 Ry
     estimated scf accuracy    <       0.18848369 Ry

     iteration # 17     ecut=    50.00 Ry     beta= 0.70
     Davidson diagonalization with overlap
     c_bands:  1 eigenvalues not converged
     c_bands:  1 eigenvalues not converged
     c_bands:  2 eigenvalues not converged
     c_bands:  2 eigenvalues not converged
     c_bands:  2 eigenvalues not converged
     ethr =  8.20E-05,  avg # of iterations = 13.5

     negative rho (up, down):  6.901E-04 0.000E+00

     total cpu time spent up to now is       20.8 secs

     total energy              =     -22.80290797 Ry
     estimated scf accuracy    <       1.55329400 Ry

     iteration # 18     ecut=    50.00 Ry     beta= 0.70
     Davidson diagonalization with overlap
     ethr =  8.20E-05,  avg # of iterations =  8.2

     negative rho (up, down):  9.226E-05 0.000E+00

     total cpu time spent up to now is       21.1 secs

     total energy              =     -22.67558968 Ry
     estimated scf accuracy    <       0.33403808 Ry

     iteration # 19     ecut=    50.00 Ry     beta= 0.70
     Davidson diagonalization with overlap
     ethr =  8.20E-05,  avg # of iterations = 11.9

     negative rho (up, down):  2.186E-05 0.000E+00

     total cpu time spent up to now is       21.4 secs

     total energy              =     -22.72584881 Ry
     estimated scf accuracy    <       0.00121151 Ry

     iteration # 20     ecut=    50.00 Ry     beta= 0.70
     Davidson diagonalization with overlap
     ethr =  1.51E-05,  avg # of iterations =  2.6

     negative rho (up, down):  1.667E-04 0.000E+00

     total cpu time spent up to now is       21.5 secs

     total energy              =     -22.72571822 Ry
     estimated scf accuracy    <       0.00038038 Ry

     iteration # 21     ecut=    50.00 Ry     beta= 0.70
     Davidson diagonalization with overlap
     ethr =  4.75E-06,  avg # of iterations =  4.6

     negative rho (up, down):  7.532E-06 0.000E+00

     total cpu time spent up to now is       21.7 secs

     total energy              =     -22.72579861 Ry
     estimated scf accuracy    <       0.00007047 Ry

     iteration # 22     ecut=    50.00 Ry     beta= 0.70
     Davidson diagonalization with overlap
     ethr =  8.81E-07,  avg # of iterations =  5.6

     negative rho (up, down):  1.381E-05 0.000E+00

     total cpu time spent up to now is       21.9 secs

     total energy              =     -22.72580741 Ry
     estimated scf accuracy    <       0.00000331 Ry

     iteration # 23     ecut=    50.00 Ry     beta= 0.70
     Davidson diagonalization with overlap
     ethr =  4.13E-08,  avg # of iterations =  1.6

     negative rho (up, down):  1.266E-06 0.000E+00

     total cpu time spent up to now is       22.0 secs

     total energy              =     -22.72580700 Ry
     estimated scf accuracy    <       0.00000090 Ry

     iteration # 24     ecut=    50.00 Ry     beta= 0.70
     Davidson diagonalization with overlap
     ethr =  1.13E-08,  avg # of iterations =  2.0

     total cpu time spent up to now is       22.1 secs

     total energy              =     -22.72580726 Ry
     estimated scf accuracy    <       0.00000009 Ry

     iteration # 25     ecut=    50.00 Ry     beta= 0.70
     Davidson diagonalization with overlap
     ethr =  1.09E-09,  avg # of iterations =  2.2

     total cpu time spent up to now is       22.3 secs

     total energy              =     -22.72580728 Ry
     estimated scf accuracy    <          4.5E-10 Ry

     iteration # 26     ecut=    50.00 Ry     beta= 0.70
     Davidson diagonalization with overlap
     ethr =  5.58E-12,  avg # of iterations =  3.9

     total cpu time spent up to now is       22.5 secs

     End of self-consistent calculation

          k = 0.0000 0.0000 0.0000 (  3241 PWs)   bands (ev):

   -24.2762 -12.2113  -6.9312  -6.9312  -1.0053  -0.2214   0.5454   0.9074

          k = 0.0000 0.0662 0.0000 (  3253 PWs)   bands (ev):

   -24.1664 -12.0791  -7.3707  -7.1722  -0.8549  -0.0687   0.6991   1.0605

          k = 0.0000 0.1324 0.0000 (  3239 PWs)   bands (ev):

   -23.8363 -11.6776  -8.5520  -7.7811  -0.4034   0.3897   1.1601   1.5197

          k = 0.0000 0.1986 0.0000 (  3216 PWs)   bands (ev):

   -23.2889 -11.0189 -10.1563  -8.5435   0.3487   1.1512   1.9285   2.2829

          k = 0.0000 0.2648 0.0000 (  3184 PWs)   bands (ev):

   -22.5278 -12.0024 -10.1130  -9.2677   1.3997   2.1971   3.0033   3.2204

          k = 0.0000 0.3310 0.0000 (  3166 PWs)   bands (ev):

   -21.5587 -13.8815  -9.8693  -8.9997   1.2544   2.7445   3.6139   4.3501

          k = 0.0000 0.3972 0.0000 (  3156 PWs)   bands (ev):

   -20.3936 -15.6890 -10.2993  -7.7671  -0.6583   4.2047   4.4926   5.2706

          k = 0.0000 0.4634 0.0000 (  3160 PWs)   bands (ev):

   -19.0890 -17.3266 -10.5300  -6.7236  -2.0611   4.1846   6.3273   7.2145

          k = 0.0573 0.0993 0.0000 (  3245 PWs)   bands (ev):

   -23.9465 -11.8118  -8.1241  -7.6585  -0.5539   0.2369   1.0064   1.3667

          k = 0.0573 0.1655 0.0000 (  3221 PWs)   bands (ev):

   -23.5075 -11.2812  -9.4234  -8.4373   0.0483   0.8472   1.6213   1.9783

          k = 0.0573 0.2317 0.0000 (  3197 PWs)   bands (ev):

   -22.8537 -11.0834 -10.4979  -9.2391   0.9505   1.7577   2.5434   2.8898

          k = 0.0573 0.2979 0.0000 (  3187 PWs)   bands (ev):

   -21.9886 -12.9212  -9.9408  -9.4845   2.1501   2.1683   3.0175   3.7712

          k = 0.0573 0.3641 0.0000 (  3170 PWs)   bands (ev):

   -20.9216 -14.7485 -10.4819  -8.2930   0.2257   3.6387   4.5075   4.8818

          k = 0.0573 0.4303 0.0000 (  3156 PWs)   bands (ev):

   -19.6737 -16.4760 -10.8049  -7.0832  -1.4895   4.7108   5.4551   6.3038

          k = 0.0573 0.4965 0.0000 (  3152 PWs)   bands (ev):

   -18.5783 -17.7362 -10.9213  -6.4392  -2.3058   4.6703   7.4116   7.5659

          k = 0.1147 0.1986 0.0000 (  3189 PWs)   bands (ev):

   -22.9615 -10.6260 -10.5485  -9.4742   0.8012   1.6082   2.3902   2.7414

          k = 0.1147 0.2648 0.0000 (  3190 PWs)   bands (ev):

   -22.2052 -12.0374 -10.4475  -9.7299   1.8527   2.6420   2.8433   3.4662

          k = 0.1147 0.3310 0.0000 (  3184 PWs)   bands (ev):

   -21.2417 -13.7420 -11.1573  -8.6231   0.9733   3.1993   4.0318   4.8477

          k = 0.1147 0.3972 0.0000 (  3171 PWs)   bands (ev):

   -20.0865 -15.4637 -11.6245  -7.3887  -0.8073   4.8307   5.6637   6.1279

          k = 0.1147 0.4634 0.0000 (  3156 PWs)   bands (ev):

   -18.7983 -17.0510 -11.8619  -6.3228  -2.1650   6.0164   6.7571   7.4768

          k = 0.1720 0.2979 0.0000 (  3194 PWs)   bands (ev):

   -21.3493 -13.0907 -11.7306  -8.7360   1.2859   3.0511   3.8649   4.6956

          k = 0.1720 0.3641 0.0000 (  3186 PWs)   bands (ev):

   -20.2965 -14.4648 -12.5984  -7.5582  -0.3188   4.5383   5.3205   6.2296

          k = 0.1720 0.4303 0.0000 (  3169 PWs)   bands (ev):

   -19.0743 -16.0030 -13.0343  -6.3286  -1.8330   6.2964   6.8587   7.8819

          k = 0.1720 0.4965 0.0000 (  3160 PWs)   bands (ev):

   -18.0219 -17.1771 -13.1729  -5.6196  -2.6420   7.5572   7.8228   8.1845

          k = 0.2293 0.3972 0.0000 (  3186 PWs)   bands (ev):

   -19.1733 -15.2547 -13.8425  -6.3460  -1.6606   6.1497   6.6064   7.8742

          k = 0.2293 0.4634 0.0000 (  3174 PWs)   bands (ev):

   -17.9425 -16.3936 -14.4119  -5.1761  -2.8889   6.9635   7.9749   9.5594

          k = 0.2867 0.4965 0.0000 (  3192 PWs)   bands (ev):

   -16.9119 -16.9119 -15.1483  -4.0103  -4.0103   6.7341   9.4584   9.4584

     the Fermi energy is    -4.0103 ev

!    total energy              =     -22.72580728 Ry
     estimated scf accuracy    <          9.7E-12 Ry
     smearing contrib. (-TS)   =      -0.00005015 Ry
     internal energy E=F+TS    =     -22.72575713 Ry

     The total energy is F=E-TS. E is the sum of the following terms:
     one-electron contribution =    -408.57777297 Ry
     hartree contribution      =     204.96740514 Ry
     xc contribution           =      -7.12575348 Ry
     ewald contribution        =     188.01036418 Ry

     convergence has been achieved in  26 iterations

     Forces acting on atoms (cartesian axes, Ry/au):

     atom    1 type  1   force =    -0.00000000   -0.00000000    0.00000000
     atom    2 type  1   force =     0.00000000    0.00000000    0.00000000

     Total force =     0.000000     Total SCF correction =     0.000000


     Computing stress (Cartesian axis) and pressure

          total   stress  (Ry/bohr**3)                   (kbar)     P=       -3.34
   0.00004996  -0.00000000   0.00000000            7.35       -0.00        0.00
  -0.00000000   0.00004996   0.00000000           -0.00        7.35        0.00
   0.00000000   0.00000000  -0.00016809            0.00        0.00      -24.73

     Energy error            =      4.4E-03
     Gradient error          =      1.5E-26
     Cell gradient error     =      5.0E-05


     number of scf cycles    =   4
     number of bfgs steps    =   3

     enthalpy old            =     -22.7213765002 Ry
     enthalpy new            =     -22.7258072844 Ry

     CASE: enthalpy_new < enthalpy_old

     new trust radius        =       0.0150217931 bohr
     new conv_thr            =            1.0E-10 Ry

     new unit-cell volume =    725.28693 a.u.^3 (   107.47643 Ang^3 )
     density =      0.37114 g/cm^3

CELL_PARAMETERS (alat=  3.90000000)
   1.165997157  -0.000000000   0.000000000
  -0.582998578   1.009783158   0.000000000
   0.000000000   0.000000000  10.384615385

ATOMIC_POSITIONS (crystal)
C             0.3333333333        0.6666666667        0.5000000000
C             0.6666666667        0.3333333333        0.5000000000



     Writing output data file ./work/LiC390.save/
     NEW-OLD atomic charge density approx. for the potential

     negative rho (up, down):  5.341E-06 0.000E+00
     extrapolated charge    8.04448, renormalised to    8.00000

     total cpu time spent up to now is       22.5 secs

     Self-consistent Calculation

     iteration #  1     ecut=    50.00 Ry     beta= 0.70
     Davidson diagonalization with overlap
     c_bands:  1 eigenvalues not converged
     c_bands:  1 eigenvalues not converged
     c_bands:  1 eigenvalues not converged
     ethr =  1.00E-06,  avg # of iterations = 14.4

     total cpu time spent up to now is       22.9 secs

     total energy              =     -22.71646364 Ry
     estimated scf accuracy    <       0.00267818 Ry

     iteration #  2     ecut=    50.00 Ry     beta= 0.70
     Davidson diagonalization with overlap
     c_bands:  1 eigenvalues not converged
     ethr =  3.35E-05,  avg # of iterations = 12.3

     total cpu time spent up to now is       23.2 secs

     total energy              =     -22.72630209 Ry
     estimated scf accuracy    <       0.00212708 Ry

     iteration #  3     ecut=    50.00 Ry     beta= 0.70
     Davidson diagonalization with overlap
     ethr =  2.66E-05,  avg # of iterations =  4.5

     total cpu time spent up to now is       23.4 secs

     total energy              =     -22.72608376 Ry
     estimated scf accuracy    <       0.00054857 Ry

     iteration #  4     ecut=    50.00 Ry     beta= 0.70
     Davidson diagonalization with overlap
     ethr =  6.86E-06,  avg # of iterations =  5.7

     total cpu time spent up to now is       23.6 secs

     total energy              =     -22.72602879 Ry
     estimated scf accuracy    <       0.00022595 Ry

     iteration #  5     ecut=    50.00 Ry     beta= 0.70
     Davidson diagonalization with overlap
     ethr =  2.82E-06,  avg # of iterations =  3.8

     negative rho (up, down):  2.884E-05 0.000E+00

     total cpu time spent up to now is       23.7 secs

     total energy              =     -22.72589574 Ry
     estimated scf accuracy    <       0.00015689 Ry

     iteration #  6     ecut=    50.00 Ry     beta= 0.70
     Davidson diagonalization with overlap
     ethr =  1.96E-06,  avg # of iterations =  5.0

     total cpu time spent up to now is       23.9 secs

     total energy              =     -22.72591316 Ry
     estimated scf accuracy    <       0.00000019 Ry

     iteration #  7     ecut=    50.00 Ry     beta= 0.70
     Davidson diagonalization with overlap
     ethr =  2.38E-09,  avg # of iterations =  5.0

     total cpu time spent up to now is       24.1 secs

     total energy              =     -22.72591332 Ry
     estimated scf accuracy    <       0.00000021 Ry

     iteration #  8     ecut=    50.00 Ry     beta= 0.70
     Davidson diagonalization with overlap
     ethr =  2.38E-09,  avg # of iterations =  1.1

     total cpu time spent up to now is       24.2 secs

     total energy              =     -22.72591396 Ry
     estimated scf accuracy    <       0.00000034 Ry

     iteration #  9     ecut=    50.00 Ry     beta= 0.70
     Davidson diagonalization with overlap
     ethr =  2.38E-09,  avg # of iterations =  1.8

     total cpu time spent up to now is       24.3 secs

     total energy              =     -22.72591411 Ry
     estimated scf accuracy    <       0.00000006 Ry

     iteration # 10     ecut=    50.00 Ry     beta= 0.70
     Davidson diagonalization with overlap
     ethr =  7.10E-10,  avg # of iterations =  3.3

     total cpu time spent up to now is       24.5 secs

     total energy              =     -22.72591414 Ry
     estimated scf accuracy    <          5.7E-09 Ry

     iteration # 11     ecut=    50.00 Ry     beta= 0.70
     Davidson diagonalization with overlap
     ethr =  7.08E-11,  avg # of iterations =  2.7

     total cpu time spent up to now is       24.6 secs

     total energy              =     -22.72591414 Ry
     estimated scf accuracy    <          4.9E-10 Ry

     iteration # 12     ecut=    50.00 Ry     beta= 0.70
     Davidson diagonalization with overlap
     ethr =  6.11E-12,  avg # of iterations =  2.3

     total cpu time spent up to now is       24.8 secs

     End of self-consistent calculation

          k = 0.0000 0.0000 0.0000 (  3241 PWs)   bands (ev):

   -24.2349 -12.1780  -6.9587  -6.9587  -1.0039  -0.2214   0.5455   0.9075

          k = 0.0000 0.0660 0.0000 (  3253 PWs)   bands (ev):

   -24.1255 -12.0468  -7.3969  -7.1976  -0.8543  -0.0696   0.6983   1.0597

          k = 0.0000 0.1320 0.0000 (  3239 PWs)   bands (ev):

   -23.7970 -11.6480  -8.5742  -7.8014  -0.4053   0.3862   1.1568   1.5163

          k = 0.0000 0.1981 0.0000 (  3216 PWs)   bands (ev):

   -23.2521 -10.9938 -10.1721  -8.5577   0.3427   1.1433   1.9208   2.2751

          k = 0.0000 0.2641 0.0000 (  3184 PWs)   bands (ev):

   -22.4946 -12.0108 -10.0940  -9.2762   1.3879   2.1820   2.9895   3.1726

          k = 0.0000 0.3301 0.0000 (  3166 PWs)   bands (ev):

   -21.5303 -13.8819  -9.8732  -8.9886   1.1946   2.7250   3.5913   4.3013

          k = 0.0000 0.3961 0.0000 (  3156 PWs)   bands (ev):

   -20.3714 -15.6808 -10.3001  -7.7654  -0.7021   4.1187   4.4390   5.2386

          k = 0.0000 0.4621 0.0000 (  3160 PWs)   bands (ev):

   -19.0773 -17.3066 -10.5294  -6.7308  -2.0924   4.0724   6.2872   7.1707

          k = 0.0572 0.0990 0.0000 (  3245 PWs)   bands (ev):

   -23.9066 -11.7813  -8.1481  -7.6797  -0.5549   0.2343   1.0040   1.3641

          k = 0.0572 0.1651 0.0000 (  3221 PWs)   bands (ev):

   -23.4697 -11.2542  -9.4430  -8.4524   0.0440   0.8411   1.6155   1.9723

          k = 0.0572 0.2311 0.0000 (  3197 PWs)   bands (ev):

   -22.8190 -11.0960 -10.4763  -9.2485   0.9412   1.7463   2.5323   2.8782

          k = 0.0572 0.2971 0.0000 (  3187 PWs)   bands (ev):

   -21.9581 -12.9263  -9.9454  -9.4700   2.1017   2.1341   2.9964   3.7530

          k = 0.0572 0.3631 0.0000 (  3170 PWs)   bands (ev):

   -20.8964 -14.7453 -10.4830  -8.2872   0.1736   3.6139   4.4800   4.7738

          k = 0.0572 0.4291 0.0000 (  3156 PWs)   bands (ev):

   -19.6560 -16.4633 -10.8037  -7.0870  -1.5268   4.6002   5.4179   6.2655

          k = 0.0572 0.4952 0.0000 (  3152 PWs)   bands (ev):

   -18.5771 -17.7064 -10.9195  -6.4488  -2.3355   4.5564   7.3647   7.5197

          k = 0.1144 0.1981 0.0000 (  3189 PWs)   bands (ev):

   -22.9263 -10.6035 -10.5653  -9.4812   0.7927   1.5977   2.3801   2.7310

          k = 0.1144 0.2641 0.0000 (  3190 PWs)   bands (ev):

   -22.1736 -12.0487 -10.4487  -9.7136   1.8383   2.6153   2.7769   3.4500

          k = 0.1144 0.3301 0.0000 (  3184 PWs)   bands (ev):

   -21.2149 -13.7450 -11.1554  -8.6147   0.9126   3.1774   4.0071   4.8236

          k = 0.1144 0.3961 0.0000 (  3171 PWs)   bands (ev):

   -20.0658 -15.4578 -11.6205  -7.3896  -0.8527   4.7993   5.6290   6.0144

          k = 0.1144 0.4621 0.0000 (  3156 PWs)   bands (ev):

   -18.7880 -17.0334 -11.8569  -6.3326  -2.1983   5.9003   6.7135   7.4294

          k = 0.1715 0.2971 0.0000 (  3194 PWs)   bands (ev):

   -21.3219 -13.1014 -11.7222  -8.7268   1.2210   3.0300   3.8413   4.6725

          k = 0.1715 0.3631 0.0000 (  3186 PWs)   bands (ev):

   -20.2744 -14.4684 -12.5866  -7.5576  -0.3708   4.5088   5.2877   6.1978

          k = 0.1715 0.4291 0.0000 (  3169 PWs)   bands (ev):

   -19.0597 -15.9961 -13.0224  -6.3376  -1.8724   6.2566   6.8147   8.0344

          k = 0.1715 0.4952 0.0000 (  3160 PWs)   bands (ev):

   -18.0219 -17.1546 -13.1611  -5.6346  -2.6743   7.5070   7.7027   8.1316

          k = 0.2287 0.3961 0.0000 (  3186 PWs)   bands (ev):

   -19.1576 -15.2605 -13.8191  -6.3545  -1.7032   6.1108   6.5645   7.8299

          k = 0.2287 0.4621 0.0000 (  3174 PWs)   bands (ev):

   -17.9363 -16.3897 -14.3869  -5.1937  -2.9223   6.9207   7.9239   9.3581

          k = 0.2859 0.4952 0.0000 (  3192 PWs)   bands (ev):

   -16.9141 -16.9141 -15.1080  -4.0363  -4.0363   6.6948   9.3845   9.3845

     the Fermi energy is    -4.0363 ev

!    total energy              =     -22.72591414 Ry
     estimated scf accuracy    <          5.4E-12 Ry
     smearing contrib. (-TS)   =      -0.00005015 Ry
     internal energy E=F+TS    =     -22.72586399 Ry

     The total energy is F=E-TS. E is the sum of the following terms:
     one-electron contribution =    -406.27042583 Ry
     hartree contribution      =     203.80756511 Ry
     xc contribution           =      -7.11317752 Ry
     ewald contribution        =     186.85017425 Ry

     convergence has been achieved in  12 iterations

     Forces acting on atoms (cartesian axes, Ry/au):

     atom    1 type  1   force =     0.00000000    0.00000000    0.00000000
     atom    2 type  1   force =     0.00000000    0.00000000    0.00000000

     Total force =     0.000000     Total SCF correction =     0.000000


     Computing stress (Cartesian axis) and pressure

          total   stress  (Ry/bohr**3)                   (kbar)     P=       -7.92
   0.00000316  -0.00000000   0.00000000            0.46       -0.00        0.00
  -0.00000000   0.00000316   0.00000000           -0.00        0.46        0.00
   0.00000000   0.00000000  -0.00016791            0.00        0.00      -24.70

     Energy error            =      1.1E-04
     Gradient error          =      0.0E+00
     Cell gradient error     =      3.2E-06


     number of scf cycles    =   5
     number of bfgs steps    =   4

     enthalpy old            =     -22.7258072844 Ry
     enthalpy new            =     -22.7259141379 Ry

     CASE: enthalpy_new < enthalpy_old

     new trust radius        =       0.0010168599 bohr
     new conv_thr            =            1.0E-10 Ry

     new unit-cell volume =    725.56081 a.u.^3 (   107.51702 Ang^3 )
     density =      0.37100 g/cm^3

CELL_PARAMETERS (alat=  3.90000000)
   1.166217284  -0.000000000   0.000000000
  -0.583108642   1.009973794   0.000000000
   0.000000000   0.000000000  10.384615385

ATOMIC_POSITIONS (crystal)
C             0.3333333333        0.6666666667        0.5000000000
C             0.6666666667        0.3333333333        0.5000000000



     Writing output data file ./work/LiC390.save/
     NEW-OLD atomic charge density approx. for the potential
     extrapolated charge    8.00301, renormalised to    8.00000

     total cpu time spent up to now is       24.8 secs

     Self-consistent Calculation

     iteration #  1     ecut=    50.00 Ry     beta= 0.70
     Davidson diagonalization with overlap
     ethr =  1.00E-06,  avg # of iterations =  5.6

     Threshold (ethr) on eigenvalues was too large:
     Diagonalizing with lowered threshold

     Davidson diagonalization with overlap
     ethr =  3.51E-08,  avg # of iterations =  1.0

     total cpu time spent up to now is       25.1 secs

     total energy              =     -22.72590893 Ry
     estimated scf accuracy    <       0.00000292 Ry

     iteration #  2     ecut=    50.00 Ry     beta= 0.70
     Davidson diagonalization with overlap
     ethr =  3.65E-08,  avg # of iterations =  4.9

     total cpu time spent up to now is       25.3 secs

     total energy              =     -22.72591475 Ry
     estimated scf accuracy    <       0.00000269 Ry

     iteration #  3     ecut=    50.00 Ry     beta= 0.70
     Davidson diagonalization with overlap
     ethr =  3.37E-08,  avg # of iterations =  1.0

     total cpu time spent up to now is       25.4 secs

     total energy              =     -22.72591457 Ry
     estimated scf accuracy    <       0.00000062 Ry

     iteration #  4     ecut=    50.00 Ry     beta= 0.70
     Davidson diagonalization with overlap
     ethr =  7.75E-09,  avg # of iterations =  1.9

     total cpu time spent up to now is       25.5 secs

     total energy              =     -22.72591461 Ry
     estimated scf accuracy    <       0.00000008 Ry

     iteration #  5     ecut=    50.00 Ry     beta= 0.70
     Davidson diagonalization with overlap
     ethr =  1.04E-09,  avg # of iterations =  1.0

     total cpu time spent up to now is       25.7 secs

     total energy              =     -22.72591460 Ry
     estimated scf accuracy    <       0.00000008 Ry

     iteration #  6     ecut=    50.00 Ry     beta= 0.70
     Davidson diagonalization with overlap
     ethr =  1.04E-09,  avg # of iterations =  1.0

     total cpu time spent up to now is       25.8 secs

     total energy              =     -22.72591457 Ry
     estimated scf accuracy    <       0.00000006 Ry

     iteration #  7     ecut=    50.00 Ry     beta= 0.70
     Davidson diagonalization with overlap
     ethr =  7.84E-10,  avg # of iterations =  2.0

     total cpu time spent up to now is       25.9 secs

     total energy              =     -22.72591457 Ry
     estimated scf accuracy    <          3.0E-09 Ry

     iteration #  8     ecut=    50.00 Ry     beta= 0.70
     Davidson diagonalization with overlap
     ethr =  3.75E-11,  avg # of iterations =  1.8

     total cpu time spent up to now is       26.0 secs

     total energy              =     -22.72591458 Ry
     estimated scf accuracy    <          2.3E-09 Ry

     iteration #  9     ecut=    50.00 Ry     beta= 0.70
[...]

          k = 0.1143 0.4621 0.0000 (  3156 PWs)   bands (ev):

   -18.7874 -17.0323 -11.8567  -6.3333  -2.2006   5.8923   6.7106   7.4258

          k = 0.1715 0.2970 0.0000 (  3194 PWs)   bands (ev):

   -21.3202 -13.1022 -11.7217  -8.7263   1.2165   3.0286   3.8396   4.6708

          k = 0.1715 0.3630 0.0000 (  3186 PWs)   bands (ev):

   -20.2731 -14.4688 -12.5860  -7.5577  -0.3744   4.5068   5.2854   6.1955

          k = 0.1715 0.4291 0.0000 (  3169 PWs)   bands (ev):

   -19.0588 -15.9958 -13.0217  -6.3383  -1.8752   6.2539   6.8117   8.0307

          k = 0.1715 0.4951 0.0000 (  3160 PWs)   bands (ev):

   -18.0220 -17.1532 -13.1604  -5.6357  -2.6766   7.5035   7.6943   8.1280

          k = 0.2287 0.3960 0.0000 (  3186 PWs)   bands (ev):

   -19.1566 -15.2610 -13.8177  -6.3552  -1.7062   6.1081   6.5616   7.8269

          k = 0.2287 0.4621 0.0000 (  3174 PWs)   bands (ev):

   -17.9360 -16.3895 -14.3853  -5.1950  -2.9246   6.9177   7.9204   9.3544

          k = 0.2858 0.4951 0.0000 (  3192 PWs)   bands (ev):

   -16.9143 -16.9143 -15.1054  -4.0382  -4.0382   6.6920   9.3794   9.3794

     the Fermi energy is    -4.0382 ev

!    total energy              =     -22.72591458 Ry
     estimated scf accuracy    <          9.4E-11 Ry
     smearing contrib. (-TS)   =      -0.00005015 Ry
     internal energy E=F+TS    =     -22.72586442 Ry

     The total energy is F=E-TS. E is the sum of the following terms:
     one-electron contribution =    -406.11428964 Ry
     hartree contribution      =     203.72910068 Ry
     xc contribution           =      -7.11232877 Ry
     ewald contribution        =     186.77165330 Ry

     convergence has been achieved in   1 iterations

     Forces acting on atoms (cartesian axes, Ry/au):

     atom    1 type  1   force =     0.00000000    0.00000000    0.00000000
     atom    2 type  1   force =    -0.00000000   -0.00000000    0.00000000

     Total force =     0.000000     Total SCF correction =     0.000000


     Computing stress (Cartesian axis) and pressure

          total   stress  (Ry/bohr**3)                   (kbar)     P=       -8.23
   0.00000001  -0.00000000   0.00000000            0.00       -0.00        0.00
  -0.00000000   0.00000001   0.00000000           -0.00        0.00        0.00
   0.00000000   0.00000000  -0.00016786            0.00        0.00      -24.69

     Message from routine bfgs:
     history already reset at previous step: stopping
     Energy error            =      2.7E-11
     Gradient error          =      1.5E-26
     Cell gradient error     =      1.4E-08


     bfgs converged in   8 scf cycles and   6 bfgs steps
     (criteria: energy <  1.0E-04 Ry, force <  1.0E-08Ry/Bohr, cell <  1.0E-03kbar)

     End of BFGS Geometry Optimization

     Final enthalpy =     -22.7259145750 Ry

     File ./work/LiC390.bfgs deleted, as requested
Begin final coordinates
     new unit-cell volume =    725.56202 a.u.^3 (   107.51720 Ang^3 )
     density =      0.37100 g/cm^3

CELL_PARAMETERS (alat=  3.90000000)
   1.166218261  -0.000000000   0.000000000
  -0.583109130   1.009974640   0.000000000
   0.000000000   0.000000000  10.384615385

ATOMIC_POSITIONS (crystal)
C             0.3333333333        0.6666666667        0.5000000000
C             0.6666666667        0.3333333333        0.5000000000
End final coordinates



     Writing output data file ./work/LiC390.save/

     Final scf calculation at the relaxed structure.
     The G-vectors are recalculated for the final unit cell
     Results may differ from those at the preceding step.
 
     Parallelization info
     --------------------
     sticks:   dense  smooth     PW     G-vecs:    dense   smooth      PW
     Min           8       8      2                 1054     1054     168
     Max           9       9      3                 1095     1095     213
     Sum         283     283     91                34641    34641    6229
 


     bravais-lattice index     =            4
     lattice parameter (alat)  =       3.9000  a.u.
     unit-cell volume          =     725.5620 (a.u.)^3
     number of atoms/cell      =            2
     number of atomic types    =            1
     number of electrons       =         8.00
     number of Kohn-Sham states=            8
     kinetic-energy cutoff     =      50.0000  Ry
     charge density cutoff     =     200.0000  Ry
     scf convergence threshold =      1.0E-10
     mixing beta               =       0.7000
     number of iterations used =            8  plain     mixing
     press convergence thresh. =      1.0E-03
     Exchange-correlation= PBE
                           (   1   4   3   4   0   0   0)

     celldm(1)=   3.900000  celldm(2)=   0.000000  celldm(3)=  10.384615
     celldm(4)=   0.000000  celldm(5)=   0.000000  celldm(6)=   0.000000

     crystal axes: (cart. coord. in units of alat)
               a(1) = (   1.166218  -0.000000   0.000000 )  
               a(2) = (  -0.583109   1.009975   0.000000 )  
               a(3) = (   0.000000   0.000000  10.384615 )  

     reciprocal axes: (cart. coord. in units 2 pi/alat)
               b(1) = (  0.857472  0.495062  0.000000 )  
               b(2) = (  0.000000  0.990124  0.000000 )  
               b(3) = (  0.000000  0.000000  0.096296 )  


     PseudoPot. # 1 for C  read from file:
     /home/yhkim/qe-6.7/pseudo/ONCV1/1.2/C_ONCV_PBE-1.2.upf
     MD5 check sum: 1a5f83a7b1f58d24996abe00ed223ac6
     Pseudo is Norm-conserving, Zval =  4.0
     Generated using ONCVPSP code by D. R. Hamann
     Using radial grid of  602 points,  4 beta functions with: 
                l(1) =   0
                l(2) =   0
                l(3) =   1
                l(4) =   1

     atomic species   valence    mass     pseudopotential
        C              4.00    12.01070     C ( 1.00)

     24 Sym. Ops., with inversion, found



   Cartesian axes

     site n.     atom                  positions (alat units)
         1           C   tau(   1) = (  -0.0000000   0.6733164   5.1923077  )
         2           C   tau(   2) = (   0.5831091   0.3366582   5.1923077  )

     number of k points=    27  Methfessel-Paxton smearing, width (Ry)=  0.0100
                       cart. coord. in units 2pi/alat
        k(    1) = (   0.0000000   0.0000000   0.0000000), wk =   0.0088889
        k(    2) = (   0.0000000   0.0660083   0.0000000), wk =   0.0533333
        k(    3) = (   0.0000000   0.1320165   0.0000000), wk =   0.0533333
        k(    4) = (   0.0000000   0.1980248   0.0000000), wk =   0.0533333
        k(    5) = (   0.0000000   0.2640330   0.0000000), wk =   0.0533333
        k(    6) = (   0.0000000   0.3300413   0.0000000), wk =   0.0533333
        k(    7) = (   0.0000000   0.3960495   0.0000000), wk =   0.0533333
        k(    8) = (   0.0000000   0.4620578   0.0000000), wk =   0.0533333
        k(    9) = (   0.0571648   0.0990124   0.0000000), wk =   0.0533333
        k(   10) = (   0.0571648   0.1650206   0.0000000), wk =   0.1066667
        k(   11) = (   0.0571648   0.2310289   0.0000000), wk =   0.1066667
        k(   12) = (   0.0571648   0.2970372   0.0000000), wk =   0.1066667
        k(   13) = (   0.0571648   0.3630454   0.0000000), wk =   0.1066667
        k(   14) = (   0.0571648   0.4290537   0.0000000), wk =   0.1066667
        k(   15) = (   0.0571648   0.4950619   0.0000000), wk =   0.0533333
        k(   16) = (   0.1143297   0.1980248   0.0000000), wk =   0.0533333
        k(   17) = (   0.1143297   0.2640330   0.0000000), wk =   0.1066667
        k(   18) = (   0.1143297   0.3300413   0.0000000), wk =   0.1066667
        k(   19) = (   0.1143297   0.3960495   0.0000000), wk =   0.1066667
        k(   20) = (   0.1143297   0.4620578   0.0000000), wk =   0.1066667
        k(   21) = (   0.1714945   0.2970372   0.0000000), wk =   0.0533333
        k(   22) = (   0.1714945   0.3630454   0.0000000), wk =   0.1066667
        k(   23) = (   0.1714945   0.4290537   0.0000000), wk =   0.1066667
        k(   24) = (   0.1714945   0.4950619   0.0000000), wk =   0.0533333
        k(   25) = (   0.2286593   0.3960495   0.0000000), wk =   0.0533333
        k(   26) = (   0.2286593   0.4620578   0.0000000), wk =   0.1066667
        k(   27) = (   0.2858241   0.4950619   0.0000000), wk =   0.0177778

     Dense  grid:    34641 G-vectors     FFT dimensions: (  24,  24, 192)

     Estimated max dynamical RAM per process >       1.92 MB

     Estimated total dynamical RAM >      61.33 MB
 ----2D----2D----2D----2D----2D----2D----2D----2D----2D----2D----2D----2D
  The code is running with the 2D cutoff
  Please refer to:
  Sohier, T., Calandra, M., & Mauri, F. (2017), 
  Density functional perturbation theory for gated two-dimensional heterostructu
 res:
  Theoretical developments and application to flexural phonons in graphene.
  Physical Review B, 96(7), 75448. https://doi.org/10.1103/PhysRevB.96.075448
 ----2D----2D----2D----2D----2D----2D----2D----2D----2D----2D----2D----2D

     Initial potential from superposition of free atoms

     starting charge    7.98607, renormalised to    8.00000

     negative rho (up, down):  1.112E-04 0.000E+00
     Starting wfcs are random

     total cpu time spent up to now is       27.5 secs

     Self-consistent Calculation

     iteration #  1     ecut=    50.00 Ry     beta= 0.70
     Davidson diagonalization with overlap
     c_bands:  2 eigenvalues not converged
     c_bands:  2 eigenvalues not converged
     c_bands:  5 eigenvalues not converged
     c_bands:  4 eigenvalues not converged
     c_bands:  4 eigenvalues not converged
     c_bands:  4 eigenvalues not converged
     c_bands:  3 eigenvalues not converged
     c_bands:  2 eigenvalues not converged
     c_bands:  3 eigenvalues not converged
     c_bands:  3 eigenvalues not converged
     c_bands:  5 eigenvalues not converged
     c_bands:  4 eigenvalues not converged
     c_bands:  4 eigenvalues not converged
     c_bands:  2 eigenvalues not converged
     c_bands:  2 eigenvalues not converged
     c_bands:  4 eigenvalues not converged
     c_bands:  4 eigenvalues not converged
     c_bands:  4 eigenvalues not converged
     c_bands:  3 eigenvalues not converged
     c_bands:  3 eigenvalues not converged
     c_bands:  4 eigenvalues not converged
     c_bands:  4 eigenvalues not converged
     c_bands:  3 eigenvalues not converged
     c_bands:  3 eigenvalues not converged
     c_bands:  3 eigenvalues not converged
     c_bands:  3 eigenvalues not converged
     c_bands:  3 eigenvalues not converged
     ethr =  1.00E-06,  avg # of iterations = 23.0

     negative rho (up, down):  2.192E-05 0.000E+00

     total cpu time spent up to now is       28.3 secs

     total energy              =     -22.74843208 Ry
     estimated scf accuracy    <       0.23233582 Ry

     iteration #  2     ecut=    50.00 Ry     beta= 0.70
     Davidson diagonalization with overlap
     ethr =  2.90E-03,  avg # of iterations =  2.2

     negative rho (up, down):  2.759E-06 0.000E+00

     total cpu time spent up to now is       28.4 secs

     total energy              =     -22.78403264 Ry
     estimated scf accuracy    <       0.00245727 Ry

     iteration #  3     ecut=    50.00 Ry     beta= 0.70
     Davidson diagonalization with overlap
     ethr =  3.07E-05,  avg # of iterations =  9.4

     total cpu time spent up to now is       28.6 secs

     total energy              =     -22.78448713 Ry
     estimated scf accuracy    <       0.00017896 Ry

     iteration #  4     ecut=    50.00 Ry     beta= 0.70
     Davidson diagonalization with overlap
     c_bands:  1 eigenvalues not converged
     ethr =  2.24E-06,  avg # of iterations =  5.3

     total cpu time spent up to now is       28.8 secs

     total energy              =     -22.78450253 Ry
     estimated scf accuracy    <       0.00000129 Ry

     iteration #  5     ecut=    50.00 Ry     beta= 0.70
     Davidson diagonalization with overlap
     ethr =  1.61E-08,  avg # of iterations =  4.0

     total cpu time spent up to now is       28.9 secs

     total energy              =     -22.78450395 Ry
     estimated scf accuracy    <       0.00000004 Ry

     iteration #  6     ecut=    50.00 Ry     beta= 0.70
     Davidson diagonalization with overlap
     ethr =  4.79E-10,  avg # of iterations =  2.3

     total cpu time spent up to now is       29.0 secs

     total energy              =     -22.78450396 Ry
     estimated scf accuracy    <          8.8E-10 Ry

     iteration #  7     ecut=    50.00 Ry     beta= 0.70
     Davidson diagonalization with overlap
     ethr =  1.10E-11,  avg # of iterations =  3.5

     total cpu time spent up to now is       29.1 secs

     End of self-consistent calculation

          k = 0.0000 0.0000 0.0000 (  4303 PWs)   bands (ev):

   -24.1635 -12.1573  -7.0754  -7.0754  -0.9940  -0.2050   0.5790   0.9346

          k = 0.0000 0.0660 0.0000 (  4295 PWs)   bands (ev):

   -24.0540 -12.0250  -7.5097  -7.3132  -0.8446  -0.0531   0.7318   1.0869

          k = 0.0000 0.1320 0.0000 (  4267 PWs)   bands (ev):

   -23.7263 -11.6273  -8.6706  -7.9186  -0.3960   0.4022   1.1900   1.5433

          k = 0.0000 0.1980 0.0000 (  4313 PWs)   bands (ev):

   -23.1831 -10.9732 -10.2771  -8.6763   0.3512   1.1587   1.9537   2.3019

          k = 0.0000 0.2640 0.0000 (  4327 PWs)   bands (ev):

   -22.4283 -12.0765 -10.0757  -9.4097   1.3949   2.1952   3.0219   3.1704

          k = 0.0000 0.3300 0.0000 (  4339 PWs)   bands (ev):

   -21.4686 -13.9137 -10.0169  -8.9718   1.1840   2.7292   3.6044   4.3092

          k = 0.0000 0.3960 0.0000 (  4347 PWs)   bands (ev):

   -20.3169 -15.6876 -10.4462  -7.7495  -0.7033   4.1083   4.4515   5.2498

          k = 0.0000 0.4621 0.0000 (  4322 PWs)   bands (ev):

   -19.0272 -17.2984 -10.6652  -6.7177  -2.0876   4.0816   6.2871   7.1788

          k = 0.0572 0.0990 0.0000 (  4277 PWs)   bands (ev):

   -23.8354 -11.7599  -8.2518  -7.7920  -0.5455   0.2505   1.0373   1.3912

          k = 0.0572 0.1650 0.0000 (  4277 PWs)   bands (ev):

   -23.3999 -11.2335  -9.5406  -8.5683   0.0528   0.8567   1.6485   1.9992

          k = 0.0572 0.2310 0.0000 (  4315 PWs)   bands (ev):

   -22.7511 -11.1841 -10.4567  -9.3738   0.9490   1.7609   2.5650   2.9051

          k = 0.0572 0.2970 0.0000 (  4337 PWs)   bands (ev):

   -21.8938 -12.9722 -10.0747  -9.4523   2.0873   2.1401   3.0093   3.7846

          k = 0.0572 0.3630 0.0000 (  4359 PWs)   bands (ev):

   -20.8378 -14.7636 -10.6079  -8.2717   0.1678   3.6156   4.4919   4.7578

          k = 0.0572 0.4291 0.0000 (  4356 PWs)   bands (ev):

   -19.6051 -16.4612 -10.9386  -7.0734  -1.5251   4.5880   5.4222   6.2746

          k = 0.0572 0.4951 0.0000 (  4354 PWs)   bands (ev):

   -18.5196 -17.7058 -11.0495  -6.4361  -2.3327   4.5522   7.3613   7.5126

          k = 0.1143 0.1980 0.0000 (  4301 PWs)   bands (ev):

   -22.8591 -10.6655 -10.5840  -9.5971   0.8006   1.6126   2.4127   2.7577

          k = 0.1143 0.2640 0.0000 (  4325 PWs)   bands (ev):

   -22.1080 -12.1121 -10.5537  -9.6950   1.8451   2.6195   2.7659   3.4821

          k = 0.1143 0.3300 0.0000 (  4351 PWs)   bands (ev):

   -21.1540 -13.7752 -11.2573  -8.5980   0.9030   3.1819   4.0191   4.8545

          k = 0.1143 0.3960 0.0000 (  4348 PWs)   bands (ev):

   -20.0120 -15.4639 -11.7195  -7.3746  -0.8539   4.7989   5.6384   5.9711

          k = 0.1143 0.4621 0.0000 (  4353 PWs)   bands (ev):

   -18.7400 -17.0272 -11.9512  -6.3219  -2.1961   5.8559   6.7122   7.4328

          k = 0.1715 0.2970 0.0000 (  4349 PWs)   bands (ev):

   -21.2601 -13.1361 -11.8102  -8.7095   1.2107   3.0351   3.8534   4.7038

          k = 0.1715 0.3630 0.0000 (  4357 PWs)   bands (ev):

   -20.2192 -14.4792 -12.6618  -7.5419  -0.3779   4.5109   5.2970   6.2283

          k = 0.1715 0.4291 0.0000 (  4340 PWs)   bands (ev):

   -19.0126 -15.9918 -13.0913  -6.3249  -1.8724   6.2525   6.8188   7.6816

          k = 0.1715 0.4951 0.0000 (  4353 PWs)   bands (ev):

   -17.9702 -17.1536 -13.2250  -5.6263  -2.6703   7.5114   7.6123   8.1185

          k = 0.2287 0.3960 0.0000 (  4357 PWs)   bands (ev):

   -19.1101 -15.2492 -13.8825  -6.3417  -1.7042   6.1082   6.5695   7.8610

          k = 0.2287 0.4621 0.0000 (  4335 PWs)   bands (ev):

   -17.8946 -16.3711 -14.4418  -5.1841  -2.9179   6.9304   7.9093   9.3333

          k = 0.2858 0.4951 0.0000 (  4335 PWs)   bands (ev):

   -16.8749 -16.8749 -15.1712  -4.0276  -4.0276   6.7078   9.3258   9.3260

     the Fermi energy is    -4.0276 ev

!    total energy              =     -22.78450396 Ry
     estimated scf accuracy    <          1.3E-11 Ry
     smearing contrib. (-TS)   =      -0.00005015 Ry
     internal energy E=F+TS    =     -22.78445381 Ry

     The total energy is F=E-TS. E is the sum of the following terms:
     one-electron contribution =    -406.21977685 Ry
     hartree contribution      =     203.77932246 Ry
     xc contribution           =      -7.11565559 Ry
     ewald contribution        =     186.77165617 Ry

     convergence has been achieved in   7 iterations

     Forces acting on atoms (cartesian axes, Ry/au):

     atom    1 type  1   force =    -0.00000000   -0.00000000    0.00000000
     atom    2 type  1   force =     0.00000000    0.00000000    0.00000000

     Total force =     0.000000     Total SCF correction =     0.000000


     Computing stress (Cartesian axis) and pressure

          total   stress  (Ry/bohr**3)                   (kbar)     P=       17.22
   0.00023297  -0.00000000   0.00000000           34.27       -0.00        0.00
  -0.00000000   0.00023297   0.00000000           -0.00       34.27        0.00
  -0.00000000  -0.00000000  -0.00011470           -0.00       -0.00      -16.87


     Writing output data file ./work/LiC390.save/
 
     init_run     :      0.14s CPU      0.17s WALL (       2 calls)
     electrons    :     26.54s CPU     28.61s WALL (       9 calls)
     update_pot   :      0.06s CPU      0.07s WALL (       7 calls)
     forces       :      0.06s CPU      0.06s WALL (       9 calls)
     stress       :      0.16s CPU      0.16s WALL (       9 calls)

     Called by init_run:
     wfcinit      :      0.10s CPU      0.12s WALL (       2 calls)
     potinit      :      0.02s CPU      0.03s WALL (       2 calls)
     hinit0       :      0.01s CPU      0.01s WALL (       2 calls)

     Called by electrons:
     c_bands      :     23.85s CPU     25.57s WALL (     125 calls)
     sum_band     :      2.45s CPU      2.61s WALL (     125 calls)
     v_of_rho     :      0.17s CPU      0.20s WALL (     131 calls)
     mix_rho      :      0.04s CPU      0.05s WALL (     125 calls)

     Called by c_bands:
     init_us_2    :      0.12s CPU      0.13s WALL (    7290 calls)
     cegterg      :     23.52s CPU     25.18s WALL (    3472 calls)

     Called by *egterg:
     cdiaghg      :      1.95s CPU      2.09s WALL (   21478 calls)
     h_psi        :     20.22s CPU     21.66s WALL (   21822 calls)
     g_psi        :      0.05s CPU      0.05s WALL (   18296 calls)

     Called by h_psi:
     h_psi:calbec :      0.49s CPU      0.53s WALL (   21822 calls)
     vloc_psi     :     19.39s CPU     20.77s WALL (   21822 calls)
     add_vuspsi   :      0.16s CPU      0.17s WALL (   21822 calls)

     General routines
     calbec       :      0.48s CPU      0.52s WALL (   23037 calls)
     fft          :      0.16s CPU      0.18s WALL (    1383 calls)
     ffts         :      0.01s CPU      0.01s WALL (     125 calls)
     fftw         :     20.86s CPU     22.34s WALL (  261570 calls)
 
     Parallel routines
     fft_scatt_xy :      0.92s CPU      0.98s WALL (  263078 calls)
     fft_scatt_yz :     10.71s CPU     11.46s WALL (  263078 calls)
 
     PWSCF        :     27.04s CPU     29.40s WALL

 
   This run was terminated on:  15:44:13  19Jan2024            

=------------------------------------------------------------------------------=
   JOB DONE.
=------------------------------------------------------------------------------=
