
     Program PWSCF v.6.7MaX starts on 19Jan2024 at 15:39:14 

     This program is part of the open-source Quantum ESPRESSO suite
     for quantum simulation of materials; please cite
         "P. Giannozzi et al., J. Phys.:Condens. Matter 21 395502 (2009);
         "P. Giannozzi et al., J. Phys.:Condens. Matter 29 465901 (2017);
          URL http://www.quantum-espresso.org", 
     in publications or presentations arising from this work. More details at
     http://www.quantum-espresso.org/quote

     Parallel version (MPI), running on    32 processors

     MPI processes distributed on     1 nodes
     R & G space division:  proc/nbgrp/npool/nimage =      32
     Waiting for input...
     Reading input from standard input

     Current dimensions of program PWSCF are:
     Max number of different atomic species (ntypx) = 10
     Max number of k-points (npk) =  40000
     Max angular momentum in pseudopotentials (lmaxx) =  3
     Message from routine read_pp_mesh:
     mesh size missing, using the one in header

     Subspace diagonalization in iterative solution of the eigenvalue problem:
     a serial algorithm will be used

 
     Parallelization info
     --------------------
     sticks:   dense  smooth     PW     G-vecs:    dense   smooth      PW
     Min           3       3      1                  439      439      73
     Max           4       4      2                  520      520     132
     Sum         127     127     43                15909    15909    3259
 


     bravais-lattice index     =            4
     lattice parameter (alat)  =       3.1000  a.u.
     unit-cell volume          =     337.0614 (a.u.)^3
     number of atoms/cell      =            2
     number of atomic types    =            1
     number of electrons       =         8.00
     number of Kohn-Sham states=            8
     kinetic-energy cutoff     =      50.0000  Ry
     charge density cutoff     =     200.0000  Ry
     scf convergence threshold =      1.0E-08
     mixing beta               =       0.7000
     number of iterations used =            8  plain     mixing
     energy convergence thresh.=      1.0E-04
     force convergence thresh. =      1.0E-08
     press convergence thresh. =      1.0E-03
     Exchange-correlation= PBE
                           (   1   4   3   4   0   0   0)
     nstep                     =           50


     celldm(1)=   3.100000  celldm(2)=   0.000000  celldm(3)=  13.064516
     celldm(4)=   0.000000  celldm(5)=   0.000000  celldm(6)=   0.000000

     crystal axes: (cart. coord. in units of alat)
               a(1) = (   1.000000   0.000000   0.000000 )  
               a(2) = (  -0.500000   0.866025   0.000000 )  
               a(3) = (   0.000000   0.000000  13.064516 )  

     reciprocal axes: (cart. coord. in units 2 pi/alat)
               b(1) = (  1.000000  0.577350  0.000000 )  
               b(2) = (  0.000000  1.154701  0.000000 )  
               b(3) = (  0.000000  0.000000  0.076543 )  


     PseudoPot. # 1 for C  read from file:
     /home/yhkim/qe-6.7/pseudo/ONCV1/1.2/C_ONCV_PBE-1.2.upf
     MD5 check sum: 1a5f83a7b1f58d24996abe00ed223ac6
     Pseudo is Norm-conserving, Zval =  4.0
     Generated using ONCVPSP code by D. R. Hamann
     Using radial grid of  602 points,  4 beta functions with: 
                l(1) =   0
                l(2) =   0
                l(3) =   1
                l(4) =   1

     atomic species   valence    mass     pseudopotential
        C              4.00    12.01070     C ( 1.00)

     24 Sym. Ops., with inversion, found



   Cartesian axes

     site n.     atom                  positions (alat units)
         1           C   tau(   1) = (  -0.0000000   0.5773503   6.5322581  )
         2           C   tau(   2) = (   0.5000000   0.2886751   6.5322581  )

     number of k points=    27  Methfessel-Paxton smearing, width (Ry)=  0.0100
                       cart. coord. in units 2pi/alat
        k(    1) = (   0.0000000   0.0000000   0.0000000), wk =   0.0088889
        k(    2) = (   0.0000000   0.0769800   0.0000000), wk =   0.0533333
        k(    3) = (   0.0000000   0.1539601   0.0000000), wk =   0.0533333
        k(    4) = (   0.0000000   0.2309401   0.0000000), wk =   0.0533333
        k(    5) = (   0.0000000   0.3079201   0.0000000), wk =   0.0533333
        k(    6) = (   0.0000000   0.3849002   0.0000000), wk =   0.0533333
        k(    7) = (   0.0000000   0.4618802   0.0000000), wk =   0.0533333
        k(    8) = (   0.0000000   0.5388603   0.0000000), wk =   0.0533333
        k(    9) = (   0.0666667   0.1154701   0.0000000), wk =   0.0533333
        k(   10) = (   0.0666667   0.1924501   0.0000000), wk =   0.1066667
        k(   11) = (   0.0666667   0.2694301   0.0000000), wk =   0.1066667
        k(   12) = (   0.0666667   0.3464102   0.0000000), wk =   0.1066667
        k(   13) = (   0.0666667   0.4233902   0.0000000), wk =   0.1066667
        k(   14) = (   0.0666667   0.5003702   0.0000000), wk =   0.1066667
        k(   15) = (   0.0666667   0.5773503   0.0000000), wk =   0.0533333
        k(   16) = (   0.1333333   0.2309401   0.0000000), wk =   0.0533333
        k(   17) = (   0.1333333   0.3079201   0.0000000), wk =   0.1066667
        k(   18) = (   0.1333333   0.3849002   0.0000000), wk =   0.1066667
        k(   19) = (   0.1333333   0.4618802   0.0000000), wk =   0.1066667
        k(   20) = (   0.1333333   0.5388603   0.0000000), wk =   0.1066667
        k(   21) = (   0.2000000   0.3464102   0.0000000), wk =   0.0533333
        k(   22) = (   0.2000000   0.4233902   0.0000000), wk =   0.1066667
        k(   23) = (   0.2000000   0.5003702   0.0000000), wk =   0.1066667
        k(   24) = (   0.2000000   0.5773503   0.0000000), wk =   0.0533333
        k(   25) = (   0.2666667   0.4618802   0.0000000), wk =   0.0533333
        k(   26) = (   0.2666667   0.5388603   0.0000000), wk =   0.1066667
        k(   27) = (   0.3333333   0.5773503   0.0000000), wk =   0.0177778

     Dense  grid:    15909 G-vectors     FFT dimensions: (  15,  15, 192)

     Estimated max dynamical RAM per process >       1.22 MB

     Estimated total dynamical RAM >      39.17 MB
 ----2D----2D----2D----2D----2D----2D----2D----2D----2D----2D----2D----2D
  The code is running with the 2D cutoff
  Please refer to:
  Sohier, T., Calandra, M., & Mauri, F. (2017), 
  Density functional perturbation theory for gated two-dimensional heterostructu
 res:
  Theoretical developments and application to flexural phonons in graphene.
  Physical Review B, 96(7), 75448. https://doi.org/10.1103/PhysRevB.96.075448
 ----2D----2D----2D----2D----2D----2D----2D----2D----2D----2D----2D----2D

     Initial potential from superposition of free atoms

     starting charge    7.98607, renormalised to    8.00000

     negative rho (up, down):  7.308E-05 0.000E+00
     Starting wfcs are random

     total cpu time spent up to now is        0.1 secs

     Self-consistent Calculation

     iteration #  1     ecut=    50.00 Ry     beta= 0.70
     Davidson diagonalization with overlap
     ethr =  1.00E-02,  avg # of iterations = 14.4

     negative rho (up, down):  6.891E-07 0.000E+00

     total cpu time spent up to now is        0.5 secs

     total energy              =     -19.53627987 Ry
     estimated scf accuracy    <       2.06390415 Ry

     iteration #  2     ecut=    50.00 Ry     beta= 0.70
     Davidson diagonalization with overlap
     ethr =  1.00E-02,  avg # of iterations =  4.4

     total cpu time spent up to now is        0.6 secs

     total energy              =     -19.85806119 Ry
     estimated scf accuracy    <       0.08744807 Ry

     iteration #  3     ecut=    50.00 Ry     beta= 0.70
     Davidson diagonalization with overlap
     ethr =  1.09E-03,  avg # of iterations =  4.5

     total cpu time spent up to now is        0.7 secs

     total energy              =     -19.89750929 Ry
     estimated scf accuracy    <       0.05138234 Ry

     iteration #  4     ecut=    50.00 Ry     beta= 0.70
     Davidson diagonalization with overlap
     ethr =  6.42E-04,  avg # of iterations =  2.8

     total cpu time spent up to now is        0.8 secs

     total energy              =     -19.89989015 Ry
     estimated scf accuracy    <       0.00465562 Ry

     iteration #  5     ecut=    50.00 Ry     beta= 0.70
     Davidson diagonalization with overlap
     ethr =  5.82E-05,  avg # of iterations =  5.5

     total cpu time spent up to now is        1.0 secs

     total energy              =     -19.90099768 Ry
     estimated scf accuracy    <       0.00008904 Ry

     iteration #  6     ecut=    50.00 Ry     beta= 0.70
     Davidson diagonalization with overlap
     c_bands:  1 eigenvalues not converged
     ethr =  1.11E-06,  avg # of iterations =  6.0

     total cpu time spent up to now is        1.1 secs

     total energy              =     -19.90102295 Ry
     estimated scf accuracy    <       0.00000666 Ry

     iteration #  7     ecut=    50.00 Ry     beta= 0.70
     Davidson diagonalization with overlap
     ethr =  8.33E-08,  avg # of iterations =  2.3

     total cpu time spent up to now is        1.2 secs

     total energy              =     -19.90102199 Ry
     estimated scf accuracy    <       0.00000417 Ry

     iteration #  8     ecut=    50.00 Ry     beta= 0.70
     Davidson diagonalization with overlap
     ethr =  5.21E-08,  avg # of iterations =  2.9

     total cpu time spent up to now is        1.3 secs

     total energy              =     -19.90102139 Ry
     estimated scf accuracy    <       0.00000136 Ry

     iteration #  9     ecut=    50.00 Ry     beta= 0.70
     Davidson diagonalization with overlap
     ethr =  1.70E-08,  avg # of iterations =  1.2

     total cpu time spent up to now is        1.4 secs

     total energy              =     -19.90102108 Ry
     estimated scf accuracy    <       0.00000050 Ry

     iteration # 10     ecut=    50.00 Ry     beta= 0.70
     Davidson diagonalization with overlap
     ethr =  6.25E-09,  avg # of iterations =  2.0

     total cpu time spent up to now is        1.5 secs

     total energy              =     -19.90102108 Ry
     estimated scf accuracy    <       0.00000005 Ry

     iteration # 11     ecut=    50.00 Ry     beta= 0.70
     Davidson diagonalization with overlap
     ethr =  6.69E-10,  avg # of iterations =  2.1

     total cpu time spent up to now is        1.6 secs

     End of self-consistent calculation

          k = 0.0000 0.0000 0.0000 (  2083 PWs)   bands (ev):

   -32.4863 -21.8496  -2.9647  -1.9272  -1.4718  -0.1512   0.3007   1.6697

          k = 0.0000 0.0770 0.0000 (  2046 PWs)   bands (ev):

   -32.3145 -21.5332  -2.6980  -2.2876  -2.2259  -1.5973   0.1738   0.6312

          k = 0.0000 0.1540 0.0000 (  2060 PWs)   bands (ev):

   -31.8070 -20.5945  -4.6470  -4.0398  -1.6578  -0.6086   1.1556   1.6221

          k = 0.0000 0.2309 0.0000 (  2060 PWs)   bands (ev):

   -30.9875 -19.0358  -7.6069  -6.1485  -0.0617   1.0378   2.7935   3.2727

          k = 0.0000 0.3079 0.0000 (  2054 PWs)   bands (ev):

   -29.9008 -16.8750 -10.6968  -8.0975   2.1730   3.3370   5.0860   5.5796

          k = 0.0000 0.3849 0.0000 (  2030 PWs)   bands (ev):

   -28.6293 -14.1518 -13.5665  -9.6684   5.0382   6.2427   8.0318   8.4761

          k = 0.0000 0.4619 0.0000 (  1994 PWs)   bands (ev):

   -27.3417 -15.9443 -10.9936 -10.7489   4.6938   8.5259  10.0182  11.6295

          k = 0.0000 0.5389 0.0000 (  1982 PWs)   bands (ev):

   -26.4117 -17.4213 -11.3011  -7.9999   0.6372  12.6179  14.2515  15.8675

          k = 0.0667 0.1155 0.0000 (  2049 PWs)   bands (ev):

   -31.9748 -20.9057  -3.7449  -3.6992  -1.9654  -0.9380   0.8288   1.2919

          k = 0.0667 0.1925 0.0000 (  2060 PWs)   bands (ev):

   -31.3112 -19.6573  -6.3024  -5.6538  -0.6934   0.3796   2.1399   2.6127

          k = 0.0667 0.2694 0.0000 (  2054 PWs)   bands (ev):

   -30.3577 -17.7952  -9.2811  -7.6269   1.2234   2.3535   4.1058   4.5923

          k = 0.0667 0.3464 0.0000 (  2046 PWs)   bands (ev):

   -29.1753 -15.3493 -12.2242  -9.3332   3.7741   4.9715   6.7254   7.2209

          k = 0.0667 0.4234 0.0000 (  2014 PWs)   bands (ev):

   -27.8794 -14.8313 -12.3842 -10.6189   6.9510   7.1266   8.5552   9.9975

          k = 0.0667 0.5004 0.0000 (  1978 PWs)   bands (ev):

   -26.7210 -16.7849 -11.4132  -9.1529   2.5534  10.7433  12.2794  13.9198

          k = 0.0667 0.5774 0.0000 (  1970 PWs)   bands (ev):

   -26.2087 -17.5655 -11.6818  -7.1426   0.0109  14.9193  15.3653  16.7653

          k = 0.1333 0.2309 0.0000 (  2051 PWs)   bands (ev):

   -30.5135 -18.1026  -8.4577  -7.7856   0.9124   2.0253   3.7806   4.2629

          k = 0.1333 0.3079 0.0000 (  2040 PWs)   bands (ev):

   -29.4613 -15.9516 -11.0834  -9.5849   3.1507   4.3235   6.0751   6.5695

          k = 0.1333 0.3849 0.0000 (  2022 PWs)   bands (ev):

   -28.2397 -13.6657 -13.2409 -10.9960   6.0160   7.2322   9.0218   9.4415

          k = 0.1333 0.4619 0.0000 (  1988 PWs)   bands (ev):

   -27.0165 -15.8375 -11.9754 -10.0869   5.0771   9.4995  10.9392  12.6195

          k = 0.1333 0.5389 0.0000 (  1978 PWs)   bands (ev):

   -26.1560 -17.1819 -12.4824  -7.0600   1.0812  13.5831  15.1398  16.8610

          k = 0.2000 0.3464 0.0000 (  2015 PWs)   bands (ev):

   -28.3658 -13.5294 -12.9885 -11.4075   5.7067   6.9398   8.6975   9.1990

          k = 0.2000 0.4234 0.0000 (  1988 PWs)   bands (ev):

   -27.1928 -14.9071 -12.7095 -10.5885   7.3266   8.8807  10.2002  11.9701

          k = 0.2000 0.5004 0.0000 (  1987 PWs)   bands (ev):

   -26.1886 -16.4322 -13.4792  -7.3476   3.0778  12.6553  13.9284  15.8894

          k = 0.2000 0.5774 0.0000 (  1986 PWs)   bands (ev):

   -25.7635 -17.0413 -13.7351  -5.2294   0.5882  16.0687  16.9121  17.0851

          k = 0.2667 0.4619 0.0000 (  1976 PWs)   bands (ev):

   -26.2119 -15.8800 -14.1054  -7.4934   4.2424  12.3455  13.2742  15.3906

          k = 0.2667 0.5389 0.0000 (  1964 PWs)   bands (ev):

   -25.5755 -16.4798 -14.8677  -4.3424   1.0453  13.4983  16.3717  18.4885

          k = 0.3333 0.5774 0.0000 (  1962 PWs)   bands (ev):

   -25.3482 -15.9309 -15.9309  -1.4211  -1.4211  12.3435  20.4972  20.4982

     the Fermi energy is    -2.2088 ev

!    total energy              =     -19.90102109 Ry
     estimated scf accuracy    <          1.4E-09 Ry
     smearing contrib. (-TS)   =      -0.00007150 Ry
     internal energy E=F+TS    =     -19.90094959 Ry

     The total energy is F=E-TS. E is the sum of the following terms:
     one-electron contribution =    -883.61199349 Ry
     hartree contribution      =     443.09979400 Ry
     xc contribution           =      -9.19189576 Ry
     ewald contribution        =     429.80314567 Ry

     convergence has been achieved in  11 iterations

     Forces acting on atoms (cartesian axes, Ry/au):

     atom    1 type  1   force =     0.00000000    0.00000000    0.00000000
     atom    2 type  1   force =     0.00000000    0.00000000    0.00000000

     Total force =     0.000000     Total SCF correction =     0.000000


     Computing stress (Cartesian axis) and pressure

          total   stress  (Ry/bohr**3)                   (kbar)     P=     2517.83
   0.02590549   0.00000000   0.00000000         3810.83        0.00        0.00
   0.00000000   0.02590549   0.00000000            0.00     3810.83        0.00
   0.00000000   0.00000000  -0.00046347            0.00        0.00      -68.18


     BFGS Geometry Optimization
     Energy error            =      0.0E+00
     Gradient error          =      0.0E+00
     Cell gradient error     =      2.6E-02


     number of scf cycles    =   1
     number of bfgs steps    =   0

     enthalpy new            =     -19.9010210859 Ry

     new trust radius        =       0.5000000000 bohr
     new conv_thr            =       0.0000000100 Ry

     new unit-cell volume =    435.10758 a.u.^3 (    64.47629 Ang^3 )
     density =      0.61865 g/cm^3

CELL_PARAMETERS (alat=  3.10000000)
   1.136171271   0.000000000   0.000000000
  -0.568085636   0.983953184   0.000000000
   0.000000000   0.000000000  13.064516129

ATOMIC_POSITIONS (crystal)
C             0.3333333333        0.6666666667        0.5000000000
C             0.6666666667        0.3333333333        0.5000000000



     Writing output data file ./work/LiC310.save/
     NEW-OLD atomic charge density approx. for the potential

     negative rho (up, down):  1.183E-04 0.000E+00
     extrapolated charge    9.79956, renormalised to    8.00000

     total cpu time spent up to now is        1.6 secs

     Self-consistent Calculation

     iteration #  1     ecut=    50.00 Ry     beta= 0.70
     Davidson diagonalization with overlap
     c_bands:  3 eigenvalues not converged
     c_bands:  5 eigenvalues not converged
     c_bands:  4 eigenvalues not converged
     c_bands:  4 eigenvalues not converged
     c_bands:  2 eigenvalues not converged
     c_bands:  5 eigenvalues not converged
     c_bands:  5 eigenvalues not converged
     c_bands:  5 eigenvalues not converged
     c_bands:  4 eigenvalues not converged
     c_bands:  4 eigenvalues not converged
     c_bands:  5 eigenvalues not converged
     c_bands:  5 eigenvalues not converged
     c_bands:  5 eigenvalues not converged
     c_bands:  2 eigenvalues not converged
     c_bands:  5 eigenvalues not converged
     c_bands:  4 eigenvalues not converged
     c_bands:  5 eigenvalues not converged
     c_bands:  5 eigenvalues not converged
     c_bands:  5 eigenvalues not converged
     c_bands:  5 eigenvalues not converged
     c_bands:  5 eigenvalues not converged
     c_bands:  5 eigenvalues not converged
     c_bands:  5 eigenvalues not converged
     c_bands:  1 eigenvalues not converged
     ethr =  1.00E-06,  avg # of iterations = 43.9

     negative rho (up, down):  6.973E-06 0.000E+00

     total cpu time spent up to now is        2.9 secs

     total energy              =    1214.73086799 Ry
     estimated scf accuracy    <     669.15040561 Ry

     iteration #  2     ecut=    50.00 Ry     beta= 0.70
     Davidson diagonalization with overlap
     c_bands:  3 eigenvalues not converged
     c_bands:  3 eigenvalues not converged
     c_bands:  4 eigenvalues not converged
     c_bands:  5 eigenvalues not converged
     c_bands:  4 eigenvalues not converged
     c_bands:  5 eigenvalues not converged
     c_bands:  5 eigenvalues not converged
     c_bands:  3 eigenvalues not converged
     c_bands:  1 eigenvalues not converged
     c_bands:  5 eigenvalues not converged
     c_bands:  2 eigenvalues not converged
     c_bands:  3 eigenvalues not converged
     c_bands:  5 eigenvalues not converged
     c_bands:  3 eigenvalues not converged
     c_bands:  4 eigenvalues not converged
     c_bands:  4 eigenvalues not converged
     c_bands:  5 eigenvalues not converged
     ethr =  1.00E-02,  avg # of iterations = 40.9

     negative rho (up, down):  3.547E-06 0.000E+00

     total cpu time spent up to now is        4.2 secs

     total energy              =    -249.92415849 Ry
     estimated scf accuracy    <     339.76941792 Ry

     iteration #  3     ecut=    50.00 Ry     beta= 0.70
     Davidson diagonalization with overlap
     c_bands:  1 eigenvalues not converged
     ethr =  1.00E-02,  avg # of iterations =  7.0

     negative rho (up, down):  4.553E-07 0.000E+00

     total cpu time spent up to now is        4.4 secs

     total energy              =     -65.11766625 Ry
     estimated scf accuracy    <     117.81146660 Ry

     iteration #  4     ecut=    50.00 Ry     beta= 0.70
     Davidson diagonalization with overlap
     ethr =  1.00E-02,  avg # of iterations =  4.7

     negative rho (up, down):  8.795E-07 0.000E+00

     total cpu time spent up to now is        4.5 secs

     total energy              =     -76.89856280 Ry
     estimated scf accuracy    <      23.09567381 Ry

     iteration #  5     ecut=    50.00 Ry     beta= 0.70
     Davidson diagonalization with overlap
     ethr =  1.00E-02,  avg # of iterations =  1.0

     negative rho (up, down):  4.071E-08 0.000E+00

     total cpu time spent up to now is        4.6 secs

     total energy              =     -24.84682126 Ry
     estimated scf accuracy    <      28.62191678 Ry

     iteration #  6     ecut=    50.00 Ry     beta= 0.70
     Davidson diagonalization with overlap
     ethr =  1.00E-02,  avg # of iterations =  3.9

     negative rho (up, down):  1.296E-07 0.000E+00

     total cpu time spent up to now is        4.7 secs

     total energy              =     -37.82208863 Ry
     estimated scf accuracy    <       2.09270520 Ry

     iteration #  7     ecut=    50.00 Ry     beta= 0.70
     Davidson diagonalization with overlap
     ethr =  1.00E-02,  avg # of iterations =  1.5

     negative rho (up, down):  5.251E-08 0.000E+00

     total cpu time spent up to now is        4.8 secs

     total energy              =     -32.11323404 Ry
     estimated scf accuracy    <       8.46228099 Ry

     iteration #  8     ecut=    50.00 Ry     beta= 0.70
     Davidson diagonalization with overlap
     ethr =  1.00E-02,  avg # of iterations =  1.0

     negative rho (up, down):  1.452E-07 0.000E+00

     total cpu time spent up to now is        4.9 secs

     total energy              =     -32.65016305 Ry
     estimated scf accuracy    <       5.54511301 Ry

     iteration #  9     ecut=    50.00 Ry     beta= 0.70
     Davidson diagonalization with overlap
     ethr =  1.00E-02,  avg # of iterations =  1.0

     negative rho (up, down):  4.435E-02 0.000E+00

     total cpu time spent up to now is        5.0 secs

     total energy              =     -21.17962155 Ry
     estimated scf accuracy    <       5.91031795 Ry

     iteration # 10     ecut=    50.00 Ry     beta= 0.70
     Davidson diagonalization with overlap
     ethr =  1.00E-02,  avg # of iterations = 10.6

     total cpu time spent up to now is        5.2 secs

     total energy              =     -17.30105535 Ry
     estimated scf accuracy    <     156.05915400 Ry

     iteration # 11     ecut=    50.00 Ry     beta= 0.70
     Davidson diagonalization with overlap
     ethr =  1.00E-02,  avg # of iterations =  4.3

     negative rho (up, down):  8.257E-05 0.000E+00

     total cpu time spent up to now is        5.4 secs

     total energy              =     -21.35033958 Ry
     estimated scf accuracy    <       2.74606691 Ry

     iteration # 12     ecut=    50.00 Ry     beta= 0.70
     Davidson diagonalization with overlap
     ethr =  1.00E-02,  avg # of iterations =  1.3

     negative rho (up, down):  5.409E-05 0.000E+00

     total cpu time spent up to now is        5.4 secs

     total energy              =     -21.38596843 Ry
     estimated scf accuracy    <       2.27391883 Ry

     iteration # 13     ecut=    50.00 Ry     beta= 0.70
     Davidson diagonalization with overlap
     ethr =  1.00E-02,  avg # of iterations =  1.2

     negative rho (up, down):  1.305E-03 0.000E+00

     total cpu time spent up to now is        5.5 secs

     total energy              =     -21.44648273 Ry
     estimated scf accuracy    <       2.23391029 Ry

     iteration # 14     ecut=    50.00 Ry     beta= 0.70
     Davidson diagonalization with overlap
     ethr =  1.00E-02,  avg # of iterations =  1.0

     negative rho (up, down):  8.144E-02 0.000E+00

     total cpu time spent up to now is        5.6 secs

     total energy              =     -20.71441492 Ry
     estimated scf accuracy    <       2.41482582 Ry

     iteration # 15     ecut=    50.00 Ry     beta= 0.70
     Davidson diagonalization with overlap
     ethr =  1.00E-02,  avg # of iterations =  4.6

     negative rho (up, down):  5.162E-02 0.000E+00

     total cpu time spent up to now is        5.7 secs

     total energy              =     -21.55932392 Ry
     estimated scf accuracy    <       0.05381166 Ry

     iteration # 16     ecut=    50.00 Ry     beta= 0.70
     Davidson diagonalization with overlap
     ethr =  6.73E-04,  avg # of iterations =  5.0

     negative rho (up, down):  4.741E-02 0.000E+00

     total cpu time spent up to now is        5.9 secs

     total energy              =     -21.61585825 Ry
     estimated scf accuracy    <       0.03183365 Ry

     iteration # 17     ecut=    50.00 Ry     beta= 0.70
     Davidson diagonalization with overlap
     ethr =  3.98E-04,  avg # of iterations =  2.1

     negative rho (up, down):  3.946E-02 0.000E+00

     total cpu time spent up to now is        6.0 secs

     total energy              =     -21.59306813 Ry
     estimated scf accuracy    <       0.02023101 Ry

     iteration # 18     ecut=    50.00 Ry     beta= 0.70
     Davidson diagonalization with overlap
     ethr =  2.53E-04,  avg # of iterations =  4.9

     negative rho (up, down):  6.439E-02 0.000E+00

     total cpu time spent up to now is        6.1 secs

     total energy              =     -21.59659069 Ry
     estimated scf accuracy    <       0.01709531 Ry

     iteration # 19     ecut=    50.00 Ry     beta= 0.70
     Davidson diagonalization with overlap
     ethr =  2.14E-04,  avg # of iterations =  6.9

     negative rho (up, down):  8.722E-02 0.000E+00

     total cpu time spent up to now is        6.2 secs

     total energy              =     -21.66059271 Ry
     estimated scf accuracy    <       0.17294445 Ry

     iteration # 20     ecut=    50.00 Ry     beta= 0.70
     Davidson diagonalization with overlap
     ethr =  2.14E-04,  avg # of iterations =  8.9

     negative rho (up, down):  5.965E-02 0.000E+00

     total cpu time spent up to now is        6.4 secs

     total energy              =     -21.31438023 Ry
     estimated scf accuracy    <       5.99220409 Ry

     iteration # 21     ecut=    50.00 Ry     beta= 0.70
     Davidson diagonalization with overlap
     ethr =  2.14E-04,  avg # of iterations =  6.6

     negative rho (up, down):  3.902E-02 0.000E+00

     total cpu time spent up to now is        6.6 secs

     total energy              =     -21.59315199 Ry
     estimated scf accuracy    <       0.15545690 Ry

     iteration # 22     ecut=    50.00 Ry     beta= 0.70
     Davidson diagonalization with overlap
     ethr =  2.14E-04,  avg # of iterations =  2.9

     negative rho (up, down):  4.079E-02 0.000E+00

     total cpu time spent up to now is        6.7 secs

     total energy              =     -21.59200878 Ry
     estimated scf accuracy    <       0.15240914 Ry

     iteration # 23     ecut=    50.00 Ry     beta= 0.70
     Davidson diagonalization with overlap
     ethr =  2.14E-04,  avg # of iterations =  1.1

     negative rho (up, down):  6.198E-02 0.000E+00

     total cpu time spent up to now is        6.8 secs

     total energy              =     -21.61384145 Ry
     estimated scf accuracy    <       0.14487836 Ry

     iteration # 24     ecut=    50.00 Ry     beta= 0.70
     Davidson diagonalization with overlap
     ethr =  2.14E-04,  avg # of iterations =  4.7

     negative rho (up, down):  4.593E-02 0.000E+00

     total cpu time spent up to now is        6.9 secs

     total energy              =     -21.60096320 Ry
     estimated scf accuracy    <       0.33159839 Ry

     iteration # 25     ecut=    50.00 Ry     beta= 0.70
     Davidson diagonalization with overlap
     ethr =  2.14E-04,  avg # of iterations =  1.2

     negative rho (up, down):  5.501E-02 0.000E+00

     total cpu time spent up to now is        7.0 secs

     total energy              =     -21.58296233 Ry
     estimated scf accuracy    <       0.16164922 Ry

     iteration # 26     ecut=    50.00 Ry     beta= 0.70
     Davidson diagonalization with overlap
     ethr =  2.14E-04,  avg # of iterations =  4.8

     negative rho (up, down):  5.539E-02 0.000E+00

     total cpu time spent up to now is        7.1 secs

     total energy              =     -21.59057818 Ry
     estimated scf accuracy    <       0.06495026 Ry

     iteration # 27     ecut=    50.00 Ry     beta= 0.70
     Davidson diagonalization with overlap
     ethr =  2.14E-04,  avg # of iterations =  1.0

     negative rho (up, down):  3.851E-02 0.000E+00

     total cpu time spent up to now is        7.2 secs

     total energy              =     -21.58233301 Ry
     estimated scf accuracy    <       0.06700514 Ry

     iteration # 28     ecut=    50.00 Ry     beta= 0.70
     Davidson diagonalization with overlap
     ethr =  2.14E-04,  avg # of iterations =  4.9

     negative rho (up, down):  1.955E-02 0.000E+00

     total cpu time spent up to now is        7.3 secs

     total energy              =     -21.56233215 Ry
     estimated scf accuracy    <       0.07042542 Ry

     iteration # 29     ecut=    50.00 Ry     beta= 0.70
     Davidson diagonalization with overlap
     ethr =  2.14E-04,  avg # of iterations =  2.2

     negative rho (up, down):  1.902E-02 0.000E+00

     total cpu time spent up to now is        7.4 secs

     total energy              =     -21.57070365 Ry
     estimated scf accuracy    <       0.02652479 Ry

     iteration # 30     ecut=    50.00 Ry     beta= 0.70
     Davidson diagonalization with overlap
     ethr =  2.14E-04,  avg # of iterations =  2.8

     negative rho (up, down):  2.182E-02 0.000E+00

     total cpu time spent up to now is        7.5 secs

     total energy              =     -21.58407605 Ry
     estimated scf accuracy    <       0.02736117 Ry

     iteration # 31     ecut=    50.00 Ry     beta= 0.70
     Davidson diagonalization with overlap
     ethr =  2.14E-04,  avg # of iterations =  1.0

     negative rho (up, down):  2.131E-02 0.000E+00

     total cpu time spent up to now is        7.6 secs

     total energy              =     -21.58506185 Ry
     estimated scf accuracy    <       0.02921781 Ry

     iteration # 32     ecut=    50.00 Ry     beta= 0.70
     Davidson diagonalization with overlap
     ethr =  2.14E-04,  avg # of iterations =  1.0

     negative rho (up, down):  2.126E-02 0.000E+00

     total cpu time spent up to now is        7.7 secs

     total energy              =     -21.58520659 Ry
     estimated scf accuracy    <       0.03086550 Ry

     iteration # 33     ecut=    50.00 Ry     beta= 0.70
     Davidson diagonalization with overlap
     ethr =  2.14E-04,  avg # of iterations =  1.6

     negative rho (up, down):  2.092E-02 0.000E+00

     total cpu time spent up to now is        7.7 secs

     total energy              =     -21.58885163 Ry
     estimated scf accuracy    <       0.03476813 Ry

     iteration # 34     ecut=    50.00 Ry     beta= 0.70
     Davidson diagonalization with overlap
     ethr =  2.14E-04,  avg # of iterations =  2.3

     negative rho (up, down):  2.083E-02 0.000E+00

     total cpu time spent up to now is        7.8 secs

     total energy              =     -21.58895989 Ry
     estimated scf accuracy    <       0.04356899 Ry

     iteration # 35     ecut=    50.00 Ry     beta= 0.70
     Davidson diagonalization with overlap
     ethr =  2.14E-04,  avg # of iterations =  1.0

     negative rho (up, down):  2.174E-02 0.000E+00

     total cpu time spent up to now is        7.9 secs

     total energy              =     -21.58749020 Ry
     estimated scf accuracy    <       0.04299938 Ry

     iteration # 36     ecut=    50.00 Ry     beta= 0.70
     Davidson diagonalization with overlap
     ethr =  2.14E-04,  avg # of iterations =  1.3

     negative rho (up, down):  4.090E-02 0.000E+00

     total cpu time spent up to now is        8.0 secs

     total energy              =     -21.58647572 Ry
     estimated scf accuracy    <       0.03641999 Ry

     iteration # 37     ecut=    50.00 Ry     beta= 0.70
     Davidson diagonalization with overlap
     ethr =  2.14E-04,  avg # of iterations =  1.5

     negative rho (up, down):  2.292E-02 0.000E+00

     total cpu time spent up to now is        8.1 secs

     total energy              =     -21.57412935 Ry
     estimated scf accuracy    <       0.03295810 Ry

     iteration # 38     ecut=    50.00 Ry     beta= 0.70
     Davidson diagonalization with overlap
     ethr =  2.14E-04,  avg # of iterations =  4.1

     negative rho (up, down):  2.469E-02 0.000E+00

     total cpu time spent up to now is        8.2 secs

     total energy              =     -21.57415532 Ry
     estimated scf accuracy    <       0.02234312 Ry

     iteration # 39     ecut=    50.00 Ry     beta= 0.70
     Davidson diagonalization with overlap
     ethr =  2.14E-04,  avg # of iterations =  2.0

     negative rho (up, down):  9.312E-03 0.000E+00

     total cpu time spent up to now is        8.3 secs

     total energy              =     -21.57353965 Ry
     estimated scf accuracy    <       0.00692358 Ry

     iteration # 40     ecut=    50.00 Ry     beta= 0.70
     Davidson diagonalization with overlap
     ethr =  8.65E-05,  avg # of iterations =  5.2

     negative rho (up, down):  6.602E-03 0.000E+00

     total cpu time spent up to now is        8.4 secs

     total energy              =     -21.57543181 Ry
     estimated scf accuracy    <       0.00074764 Ry

     iteration # 41     ecut=    50.00 Ry     beta= 0.70
     Davidson diagonalization with overlap
     ethr =  9.35E-06,  avg # of iterations =  6.6

     negative rho (up, down):  4.533E-03 0.000E+00

     total cpu time spent up to now is        8.5 secs

     total energy              =     -21.58468490 Ry
     estimated scf accuracy    <       0.00351811 Ry

     iteration # 42     ecut=    50.00 Ry     beta= 0.70
     Davidson diagonalization with overlap
     ethr =  9.35E-06,  avg # of iterations =  2.2

     negative rho (up, down):  3.733E-03 0.000E+00

     total cpu time spent up to now is        8.6 secs

     total energy              =     -21.58458785 Ry
     estimated scf accuracy    <       0.00098394 Ry

     iteration # 43     ecut=    50.00 Ry     beta= 0.70
     Davidson diagonalization with overlap
     ethr =  9.35E-06,  avg # of iterations =  1.4

     negative rho (up, down):  2.054E-03 0.000E+00

     total cpu time spent up to now is        8.7 secs

     total energy              =     -21.58454333 Ry
     estimated scf accuracy    <       0.00018887 Ry

     iteration # 44     ecut=    50.00 Ry     beta= 0.70
     Davidson diagonalization with overlap
     ethr =  2.36E-06,  avg # of iterations =  5.1

     negative rho (up, down):  2.243E-03 0.000E+00

     total cpu time spent up to now is        8.9 secs

     total energy              =     -21.58453651 Ry
     estimated scf accuracy    <       0.00029990 Ry

     iteration # 45     ecut=    50.00 Ry     beta= 0.70
     Davidson diagonalization with overlap
     ethr =  2.36E-06,  avg # of iterations =  4.1

     negative rho (up, down):  1.649E-03 0.000E+00

     total cpu time spent up to now is        9.0 secs

     total energy              =     -21.58456213 Ry
     estimated scf accuracy    <       0.00003379 Ry

     iteration # 46     ecut=    50.00 Ry     beta= 0.70
     Davidson diagonalization with overlap
     ethr =  4.22E-07,  avg # of iterations =  4.4

     negative rho (up, down):  1.371E-03 0.000E+00

     total cpu time spent up to now is        9.1 secs

     total energy              =     -21.58455275 Ry
     estimated scf accuracy    <       0.00001968 Ry

     iteration # 47     ecut=    50.00 Ry     beta= 0.70
     Davidson diagonalization with overlap
     ethr =  2.46E-07,  avg # of iterations =  3.6

     negative rho (up, down):  1.087E-05 0.000E+00

     total cpu time spent up to now is        9.2 secs

     total energy              =     -21.58449350 Ry
     estimated scf accuracy    <       0.00001468 Ry

     iteration # 48     ecut=    50.00 Ry     beta= 0.70
     Davidson diagonalization with overlap
     ethr =  1.83E-07,  avg # of iterations =  7.8

     negative rho (up, down):  5.027E-05 0.000E+00

     total cpu time spent up to now is        9.4 secs

     total energy              =     -21.58451075 Ry
     estimated scf accuracy    <       0.00000759 Ry

     iteration # 49     ecut=    50.00 Ry     beta= 0.70
     Davidson diagonalization with overlap
     ethr =  9.48E-08,  avg # of iterations =  3.5

     negative rho (up, down):  4.640E-05 0.000E+00

     total cpu time spent up to now is        9.5 secs

     total energy              =     -21.58450319 Ry
     estimated scf accuracy    <       0.00002006 Ry

     iteration # 50     ecut=    50.00 Ry     beta= 0.70
     Davidson diagonalization with overlap
     ethr =  9.48E-08,  avg # of iterations =  2.1

     negative rho (up, down):  3.322E-05 0.000E+00

     total cpu time spent up to now is        9.6 secs

     total energy              =     -21.58450801 Ry
     estimated scf accuracy    <       0.00000283 Ry

     iteration # 51     ecut=    50.00 Ry     beta= 0.70
     Davidson diagonalization with overlap
     ethr =  3.54E-08,  avg # of iterations =  2.3

     negative rho (up, down):  1.061E-05 0.000E+00

     total cpu time spent up to now is        9.7 secs

     total energy              =     -21.58450921 Ry
     estimated scf accuracy    <       0.00000668 Ry

     iteration # 52     ecut=    50.00 Ry     beta= 0.70
     Davidson diagonalization with overlap
     ethr =  3.54E-08,  avg # of iterations =  3.6

     total cpu time spent up to now is        9.8 secs

     total energy              =     -21.58450836 Ry
     estimated scf accuracy    <       0.00000408 Ry

     iteration # 53     ecut=    50.00 Ry     beta= 0.70
     Davidson diagonalization with overlap
     ethr =  3.54E-08,  avg # of iterations =  3.2

     total cpu time spent up to now is        9.9 secs

     total energy              =     -21.58450941 Ry
     estimated scf accuracy    <       0.00000046 Ry

     iteration # 54     ecut=    50.00 Ry     beta= 0.70
     Davidson diagonalization with overlap
     ethr =  5.72E-09,  avg # of iterations =  1.5

     total cpu time spent up to now is       10.0 secs

     total energy              =     -21.58450965 Ry
     estimated scf accuracy    <       0.00000003 Ry

     iteration # 55     ecut=    50.00 Ry     beta= 0.70
     Davidson diagonalization with overlap
     ethr =  4.00E-10,  avg # of iterations =  1.2

     total cpu time spent up to now is       10.1 secs

     End of self-consistent calculation

          k = 0.0000 0.0000 0.0000 (  2083 PWs)   bands (ev):

   -28.6327 -16.7279  -3.0565  -1.6651  -0.8839   0.1279   0.5474   1.8489

          k =-0.0000 0.0678 0.0000 (  2046 PWs)   bands (ev):

   -28.4760 -16.4865  -3.7141  -3.5683  -1.4177  -0.6283   0.3810   0.8031

          k =-0.0000 0.1355 0.0000 (  2060 PWs)   bands (ev):

   -28.0101 -15.7747  -5.4972  -4.8409  -0.6698   0.1376   1.1427   1.5695

          k =-0.0000 0.2033 0.0000 (  2060 PWs)   bands (ev):

   -27.2387 -14.5929  -7.9208  -6.3550   0.5786   1.4132   2.4142   2.8461

          k =-0.0000 0.2710 0.0000 (  2054 PWs)   bands (ev):

   -26.1748 -12.9580 -10.5856  -7.7777   2.3248   3.1947   4.1951   4.6289

          k =-0.0000 0.3388 0.0000 (  2030 PWs)   bands (ev):

   -24.8498 -13.2239 -10.9085  -8.9367   4.5654   5.4354   6.4844   6.8101

          k =-0.0000 0.4065 0.0000 (  1994 PWs)   bands (ev):

   -23.3362 -15.6463  -9.7298  -8.5597   3.6080   7.2964   8.3501   9.2819

          k =-0.0000 0.4743 0.0000 (  1982 PWs)   bands (ev):

   -21.9419 -17.4967 -10.1370  -6.4092   0.6760  10.5075  11.6398  12.5846

          k = 0.0587 0.1016 0.0000 (  2049 PWs)   bands (ev):

   -28.1651 -16.0098  -4.8005  -4.5851  -0.9183  -0.1175   0.8888   1.3142

          k = 0.0587 0.1694 0.0000 (  2060 PWs)   bands (ev):

   -27.5453 -15.0636  -6.7687  -6.1037   0.0821   0.9033   1.9063   2.3357

          k = 0.0587 0.2371 0.0000 (  2054 PWs)   bands (ev):

   -26.6277 -13.6530  -9.2658  -7.5740   1.5806   2.4326   3.4330   3.8664

          k = 0.0587 0.3049 0.0000 (  2046 PWs)   bands (ev):

   -25.4311 -11.8993 -11.8073  -8.8412   3.5747   4.4607   5.4684   5.8946

          k = 0.0587 0.3726 0.0000 (  2014 PWs)   bands (ev):

   -23.9995 -14.4267  -9.7921  -9.5864   5.4528   6.0609   7.1227   8.0120

          k = 0.0587 0.4404 0.0000 (  1978 PWs)   bands (ev):

   -22.4730 -16.6218 -10.3777  -7.2125   2.0178   9.0325  10.1098  11.0628

          k = 0.0587 0.5082 0.0000 (  1970 PWs)   bands (ev):

   -21.5771 -17.7527 -10.5779  -5.8046   0.2253  12.4281  12.5250  13.6884

          k = 0.1174 0.2033 0.0000 (  2051 PWs)   bands (ev):

   -26.7793 -13.8853  -8.1982  -8.1277   1.3351   2.1784   3.1798   3.6119

          k = 0.1174 0.2710 0.0000 (  2040 PWs)   bands (ev):

   -25.7255 -12.2598 -10.5822  -9.4564   3.0839   3.9593   4.9619   5.3946

          k = 0.1174 0.3388 0.0000 (  2022 PWs)   bands (ev):

   -24.4138 -13.0790 -10.4985 -10.2218   5.3247   6.1968   7.2520   7.3570

          k = 0.1174 0.4065 0.0000 (  1988 PWs)   bands (ev):

   -22.9155 -15.4124 -11.2234  -7.8756   3.7576   8.0522   9.0684  10.0492

          k = 0.1174 0.4743 0.0000 (  1978 PWs)   bands (ev):

   -21.5589 -17.2113 -11.6086  -5.6934   0.8876  11.2537  12.3259  13.3515

          k = 0.1760 0.3049 0.0000 (  2015 PWs)   bands (ev):

   -24.5530 -11.9718 -11.4041 -10.4363   5.0806   5.9876   6.9990   7.4259

          k = 0.1760 0.3726 0.0000 (  1988 PWs)   bands (ev):

   -23.1572 -14.0886 -12.4011  -8.2361   5.2131   7.5631   8.5078   9.5427

          k = 0.1760 0.4404 0.0000 (  1987 PWs)   bands (ev):

   -21.6985 -16.1127 -12.9565  -5.8475   2.1355  10.5182  11.4150  12.5906

          k = 0.1760 0.5082 0.0000 (  1986 PWs)   bands (ev):

   -20.8552 -17.1583 -13.1437  -4.3496   0.3863  13.2271  13.8975  13.9377

          k = 0.2347 0.4065 0.0000 (  1976 PWs)   bands (ev):

   -21.7662 -15.1295 -14.0035  -5.9361   2.8270  10.2728  10.9960  12.3368

          k = 0.2347 0.4743 0.0000 (  1964 PWs)   bands (ev):

   -20.5510 -16.3749 -14.6440  -3.6331   0.4697  11.6056  13.4227  14.9429

          k = 0.2934 0.5082 0.0000 (  1962 PWs)   bands (ev):

   -20.0090 -15.9210 -15.9210  -1.4588  -1.4588  10.8937  16.5986  16.5986

     the Fermi energy is    -1.4892 ev

!    total energy              =     -21.58450984 Ry
     estimated scf accuracy    <          3.6E-09 Ry
     smearing contrib. (-TS)   =      -0.00006310 Ry
     internal energy E=F+TS    =     -21.58444674 Ry

     The total energy is F=E-TS. E is the sum of the following terms:
     one-electron contribution =    -682.35286602 Ry
     hartree contribution      =     342.51280716 Ry
     xc contribution           =      -8.42936522 Ry
     ewald contribution        =     326.68497734 Ry

     convergence has been achieved in  55 iterations

     Forces acting on atoms (cartesian axes, Ry/au):

     atom    1 type  1   force =     0.00000000    0.00000000    0.00000000
     atom    2 type  1   force =     0.00000000    0.00000000    0.00000000

     Total force =     0.000000     Total SCF correction =     0.000000


     Computing stress (Cartesian axis) and pressure

          total   stress  (Ry/bohr**3)                   (kbar)     P=     1027.75
   0.01069806   0.00000000  -0.00000000         1573.74        0.00       -0.00
   0.00000000   0.01069806   0.00000000            0.00     1573.74        0.00
  -0.00000000   0.00000000  -0.00043654           -0.00        0.00      -64.22

     Energy error            =      1.7E+00
     Gradient error          =      0.0E+00
     Cell gradient error     =      1.1E-02


     number of scf cycles    =   2
     number of bfgs steps    =   1

     enthalpy old            =     -19.9010210859 Ry
     enthalpy new            =     -21.5845098425 Ry

     CASE: enthalpy_new < enthalpy_old

     new trust radius        =       0.4419725736 bohr
     new conv_thr            =            1.0E-10 Ry

     new unit-cell volume =    532.18316 a.u.^3 (    78.86141 Ang^3 )
     density =      0.50580 g/cm^3

CELL_PARAMETERS (alat=  3.10000000)
   1.256539206  -0.000000000   0.000000000
  -0.628269603   1.088194873   0.000000000
   0.000000000   0.000000000  13.064516129

ATOMIC_POSITIONS (crystal)
C             0.3333333333        0.6666666667        0.5000000000
C             0.6666666667        0.3333333333        0.5000000000



     Writing output data file ./work/LiC310.save/
     NEW-OLD atomic charge density approx. for the potential

     negative rho (up, down):  2.299E-04 0.000E+00
     extrapolated charge    9.45674, renormalised to    8.00000

     total cpu time spent up to now is       10.1 secs

     Self-consistent Calculation

     iteration #  1     ecut=    50.00 Ry     beta= 0.70
     Davidson diagonalization with overlap
     c_bands:  5 eigenvalues not converged
     c_bands:  5 eigenvalues not converged
     c_bands:  5 eigenvalues not converged
     c_bands:  2 eigenvalues not converged
     c_bands:  2 eigenvalues not converged
     c_bands:  2 eigenvalues not converged
     c_bands:  5 eigenvalues not converged
     c_bands:  5 eigenvalues not converged
     c_bands:  4 eigenvalues not converged
     c_bands:  3 eigenvalues not converged
     c_bands:  3 eigenvalues not converged
     c_bands:  5 eigenvalues not converged
     c_bands:  3 eigenvalues not converged
     c_bands:  5 eigenvalues not converged
     c_bands:  2 eigenvalues not converged
     c_bands:  3 eigenvalues not converged
     c_bands:  4 eigenvalues not converged
     c_bands:  5 eigenvalues not converged
     c_bands:  4 eigenvalues not converged
     c_bands:  4 eigenvalues not converged
     c_bands:  5 eigenvalues not converged
     c_bands:  5 eigenvalues not converged
     c_bands:  4 eigenvalues not converged
     c_bands:  5 eigenvalues not converged
     c_bands:  2 eigenvalues not converged
     ethr =  1.00E-06,  avg # of iterations = 37.5

     negative rho (up, down):  1.103E-05 0.000E+00

     total cpu time spent up to now is       11.2 secs

     total energy              =     971.84636910 Ry
     estimated scf accuracy    <     539.33017817 Ry

     iteration #  2     ecut=    50.00 Ry     beta= 0.70
     Davidson diagonalization with overlap
     c_bands:  3 eigenvalues not converged
     c_bands:  4 eigenvalues not converged
     c_bands:  2 eigenvalues not converged
     c_bands:  3 eigenvalues not converged
     c_bands:  5 eigenvalues not converged
     c_bands:  1 eigenvalues not converged
     c_bands:  2 eigenvalues not converged
     c_bands:  5 eigenvalues not converged
     c_bands:  5 eigenvalues not converged
     c_bands:  4 eigenvalues not converged
     c_bands:  2 eigenvalues not converged
     c_bands:  5 eigenvalues not converged
     c_bands:  1 eigenvalues not converged
     c_bands:  3 eigenvalues not converged
     c_bands:  2 eigenvalues not converged
     c_bands:  1 eigenvalues not converged
     ethr =  1.00E-02,  avg # of iterations = 40.0

     negative rho (up, down):  5.918E-06 0.000E+00

     total cpu time spent up to now is       12.4 secs

     total energy              =    -205.20773003 Ry
     estimated scf accuracy    <     273.56652874 Ry

     iteration #  3     ecut=    50.00 Ry     beta= 0.70
     Davidson diagonalization with overlap
     ethr =  1.00E-02,  avg # of iterations =  4.5

     negative rho (up, down):  1.679E-06 0.000E+00

     total cpu time spent up to now is       12.5 secs

     total energy              =     -61.29692305 Ry
     estimated scf accuracy    <      94.71956963 Ry

     iteration #  4     ecut=    50.00 Ry     beta= 0.70
     Davidson diagonalization with overlap
     ethr =  1.00E-02,  avg # of iterations =  3.8

     negative rho (up, down):  2.137E-06 0.000E+00

     total cpu time spent up to now is       12.7 secs

     total energy              =     -72.75568127 Ry
     estimated scf accuracy    <      20.76352604 Ry

     iteration #  5     ecut=    50.00 Ry     beta= 0.70
     Davidson diagonalization with overlap
     ethr =  1.00E-02,  avg # of iterations =  1.1

     negative rho (up, down):  2.934E-07 0.000E+00

     total cpu time spent up to now is       12.7 secs

     total energy              =     -30.37788331 Ry
     estimated scf accuracy    <      26.30210199 Ry

     iteration #  6     ecut=    50.00 Ry     beta= 0.70
     Davidson diagonalization with overlap
     ethr =  1.00E-02,  avg # of iterations =  3.6

     negative rho (up, down):  7.217E-08 0.000E+00

     total cpu time spent up to now is       12.9 secs

     total energy              =     -27.47049582 Ry
     estimated scf accuracy    <       4.63805142 Ry

     iteration #  7     ecut=    50.00 Ry     beta= 0.70
     Davidson diagonalization with overlap
     ethr =  1.00E-02,  avg # of iterations =  2.5

     negative rho (up, down):  4.629E-07 0.000E+00

     total cpu time spent up to now is       13.0 secs

     total energy              =     -34.75731369 Ry
     estimated scf accuracy    <       2.86408065 Ry

     iteration #  8     ecut=    50.00 Ry     beta= 0.70
     Davidson diagonalization with overlap
     ethr =  1.00E-02,  avg # of iterations =  1.1

     negative rho (up, down):  2.893E-03 0.000E+00

     total cpu time spent up to now is       13.0 secs

     total energy              =     -24.61377270 Ry
     estimated scf accuracy    <       6.56569705 Ry

     iteration #  9     ecut=    50.00 Ry     beta= 0.70
     Davidson diagonalization with overlap
     ethr =  1.00E-02,  avg # of iterations =  3.3

     negative rho (up, down):  2.914E-04 0.000E+00

     total cpu time spent up to now is       13.1 secs

     total energy              =     -22.10382312 Ry
     estimated scf accuracy    <       1.44564722 Ry

     iteration # 10     ecut=    50.00 Ry     beta= 0.70
     Davidson diagonalization with overlap
     ethr =  1.00E-02,  avg # of iterations =  4.3

     total cpu time spent up to now is       13.3 secs

     total energy              =     -22.36132405 Ry
     estimated scf accuracy    <       0.43093487 Ry

     iteration # 11     ecut=    50.00 Ry     beta= 0.70
     Davidson diagonalization with overlap
     ethr =  5.39E-03,  avg # of iterations =  6.5

     negative rho (up, down):  6.410E-04 0.000E+00

     total cpu time spent up to now is       13.4 secs

     total energy              =     -22.16516182 Ry
     estimated scf accuracy    <       2.24811026 Ry

     iteration # 12     ecut=    50.00 Ry     beta= 0.70
     Davidson diagonalization with overlap
     ethr =  5.39E-03,  avg # of iterations =  1.2

     negative rho (up, down):  4.424E-03 0.000E+00

     total cpu time spent up to now is       13.5 secs

     total energy              =     -22.27484370 Ry
     estimated scf accuracy    <       0.25275746 Ry

     iteration # 13     ecut=    50.00 Ry     beta= 0.70
     Davidson diagonalization with overlap
     ethr =  3.16E-03,  avg # of iterations =  1.1

     negative rho (up, down):  8.068E-03 0.000E+00

     total cpu time spent up to now is       13.6 secs

     total energy              =     -22.29194802 Ry
     estimated scf accuracy    <       0.28892854 Ry

     iteration # 14     ecut=    50.00 Ry     beta= 0.70
     Davidson diagonalization with overlap
     ethr =  3.16E-03,  avg # of iterations =  1.1

     negative rho (up, down):  8.903E-03 0.000E+00

     total cpu time spent up to now is       13.7 secs

     total energy              =     -22.30919732 Ry
     estimated scf accuracy    <       0.44592950 Ry

     iteration # 15     ecut=    50.00 Ry     beta= 0.70
     Davidson diagonalization with overlap
     ethr =  3.16E-03,  avg # of iterations =  1.0

     negative rho (up, down):  1.286E-02 0.000E+00

     total cpu time spent up to now is       13.7 secs

     total energy              =     -22.20244838 Ry
     estimated scf accuracy    <       0.80285728 Ry

     iteration # 16     ecut=    50.00 Ry     beta= 0.70
     Davidson diagonalization with overlap
     ethr =  3.16E-03,  avg # of iterations =  1.4

     negative rho (up, down):  2.058E-02 0.000E+00

     total cpu time spent up to now is       13.8 secs

     total energy              =     -22.25572634 Ry
     estimated scf accuracy    <       0.18309512 Ry

     iteration # 17     ecut=    50.00 Ry     beta= 0.70
     Davidson diagonalization with overlap
     ethr =  2.29E-03,  avg # of iterations =  1.0

     negative rho (up, down):  4.184E-02 0.000E+00

     total cpu time spent up to now is       13.9 secs

     total energy              =     -22.28567547 Ry
     estimated scf accuracy    <       0.18318626 Ry

     iteration # 18     ecut=    50.00 Ry     beta= 0.70
     Davidson diagonalization with overlap
     ethr =  2.29E-03,  avg # of iterations =  4.9

     negative rho (up, down):  1.914E-02 0.000E+00

     total cpu time spent up to now is       14.0 secs

     total energy              =     -21.98162793 Ry
     estimated scf accuracy    <       2.95016227 Ry

     iteration # 19     ecut=    50.00 Ry     beta= 0.70
     Davidson diagonalization with overlap
     ethr =  2.29E-03,  avg # of iterations =  4.6

     negative rho (up, down):  3.677E-02 0.000E+00

     total cpu time spent up to now is       14.2 secs

     total energy              =     -22.25847785 Ry
     estimated scf accuracy    <       0.01688724 Ry

     iteration # 20     ecut=    50.00 Ry     beta= 0.70
     Davidson diagonalization with overlap
     ethr =  2.11E-04,  avg # of iterations =  4.9

     negative rho (up, down):  4.419E-02 0.000E+00

     total cpu time spent up to now is       14.3 secs

     total energy              =     -22.26155059 Ry
     estimated scf accuracy    <       0.03812702 Ry

     iteration # 21     ecut=    50.00 Ry     beta= 0.70
     Davidson diagonalization with overlap
     ethr =  2.11E-04,  avg # of iterations =  1.0

     negative rho (up, down):  4.267E-02 0.000E+00

     total cpu time spent up to now is       14.4 secs

     total energy              =     -22.26839667 Ry
     estimated scf accuracy    <       0.03583534 Ry

     iteration # 22     ecut=    50.00 Ry     beta= 0.70
     Davidson diagonalization with overlap
     ethr =  2.11E-04,  avg # of iterations =  5.2

     negative rho (up, down):  2.280E-02 0.000E+00

     total cpu time spent up to now is       14.5 secs

     total energy              =     -22.24509751 Ry
     estimated scf accuracy    <       0.10327923 Ry

     iteration # 23     ecut=    50.00 Ry     beta= 0.70
     Davidson diagonalization with overlap
     ethr =  2.11E-04,  avg # of iterations =  5.1

     negative rho (up, down):  4.256E-03 0.000E+00

     total cpu time spent up to now is       14.6 secs

     total energy              =     -22.24649928 Ry
     estimated scf accuracy    <       0.01240566 Ry

     iteration # 24     ecut=    50.00 Ry     beta= 0.70
     Davidson diagonalization with overlap
     ethr =  1.55E-04,  avg # of iterations =  5.5

     negative rho (up, down):  6.877E-03 0.000E+00

     total cpu time spent up to now is       14.8 secs

     total energy              =     -22.25204370 Ry
     estimated scf accuracy    <       0.00179943 Ry

     iteration # 25     ecut=    50.00 Ry     beta= 0.70
     Davidson diagonalization with overlap
     ethr =  2.25E-05,  avg # of iterations =  7.7

     negative rho (up, down):  3.375E-03 0.000E+00

     total cpu time spent up to now is       14.9 secs

     total energy              =     -22.27177624 Ry
     estimated scf accuracy    <       0.00182364 Ry

     iteration # 26     ecut=    50.00 Ry     beta= 0.70
     Davidson diagonalization with overlap
     ethr =  2.25E-05,  avg # of iterations =  2.1

     negative rho (up, down):  2.769E-03 0.000E+00

     total cpu time spent up to now is       15.0 secs

     total energy              =     -22.27183689 Ry
     estimated scf accuracy    <       0.00061698 Ry

     iteration # 27     ecut=    50.00 Ry     beta= 0.70
     Davidson diagonalization with overlap
     ethr =  7.71E-06,  avg # of iterations =  3.0

     negative rho (up, down):  2.400E-03 0.000E+00

     total cpu time spent up to now is       15.1 secs

     total energy              =     -22.27170063 Ry
     estimated scf accuracy    <       0.00048581 Ry

     iteration # 28     ecut=    50.00 Ry     beta= 0.70
     Davidson diagonalization with overlap
     ethr =  6.07E-06,  avg # of iterations =  4.6

     negative rho (up, down):  2.422E-03 0.000E+00

     total cpu time spent up to now is       15.2 secs

     total energy              =     -22.27154102 Ry
     estimated scf accuracy    <       0.00039498 Ry

     iteration # 29     ecut=    50.00 Ry     beta= 0.70
     Davidson diagonalization with overlap
     ethr =  4.94E-06,  avg # of iterations =  5.6

     negative rho (up, down):  2.043E-03 0.000E+00

     total cpu time spent up to now is       15.4 secs

     total energy              =     -22.27152231 Ry
     estimated scf accuracy    <       0.00029084 Ry

     iteration # 30     ecut=    50.00 Ry     beta= 0.70
     Davidson diagonalization with overlap
     ethr =  3.64E-06,  avg # of iterations =  1.9

     total cpu time spent up to now is       15.5 secs

     total energy              =     -22.27124427 Ry
     estimated scf accuracy    <       0.00027860 Ry

     iteration # 31     ecut=    50.00 Ry     beta= 0.70
     Davidson diagonalization with overlap
     ethr =  3.48E-06,  avg # of iterations =  6.6

     negative rho (up, down):  2.325E-06 0.000E+00

     total cpu time spent up to now is       15.6 secs

     total energy              =     -22.27115048 Ry
     estimated scf accuracy    <       0.00012106 Ry

     iteration # 32     ecut=    50.00 Ry     beta= 0.70
     Davidson diagonalization with overlap
     ethr =  1.51E-06,  avg # of iterations =  6.6

     negative rho (up, down):  4.465E-06 0.000E+00

     total cpu time spent up to now is       15.8 secs

     total energy              =     -22.27118059 Ry
     estimated scf accuracy    <       0.00006247 Ry

     iteration # 33     ecut=    50.00 Ry     beta= 0.70
     Davidson diagonalization with overlap
     ethr =  7.81E-07,  avg # of iterations =  4.5

     negative rho (up, down):  1.294E-04 0.000E+00

     total cpu time spent up to now is       15.9 secs

     total energy              =     -22.27112146 Ry
     estimated scf accuracy    <       0.00012970 Ry

     iteration # 34     ecut=    50.00 Ry     beta= 0.70
     Davidson diagonalization with overlap
     ethr =  7.81E-07,  avg # of iterations =  6.3

     negative rho (up, down):  6.190E-06 0.000E+00

     total cpu time spent up to now is       16.0 secs

     total energy              =     -22.27114044 Ry
     estimated scf accuracy    <       0.00000032 Ry

     iteration # 35     ecut=    50.00 Ry     beta= 0.70
     Davidson diagonalization with overlap
     ethr =  3.99E-09,  avg # of iterations =  3.1

     negative rho (up, down):  3.214E-07 0.000E+00

     total cpu time spent up to now is       16.2 secs

     total energy              =     -22.27114043 Ry
     estimated scf accuracy    <       0.00000016 Ry

     iteration # 36     ecut=    50.00 Ry     beta= 0.70
     Davidson diagonalization with overlap
     ethr =  2.02E-09,  avg # of iterations =  2.2

     total cpu time spent up to now is       16.2 secs

     total energy              =     -22.27114050 Ry
     estimated scf accuracy    <       0.00000004 Ry

     iteration # 37     ecut=    50.00 Ry     beta= 0.70
     Davidson diagonalization with overlap
     ethr =  4.91E-10,  avg # of iterations =  1.7

     total cpu time spent up to now is       16.3 secs

     total energy              =     -22.27114052 Ry
     estimated scf accuracy    <          3.0E-09 Ry

     iteration # 38     ecut=    50.00 Ry     beta= 0.70
     Davidson diagonalization with overlap
     ethr =  3.75E-11,  avg # of iterations =  2.2

     total cpu time spent up to now is       16.4 secs

     End of self-consistent calculation

          k = 0.0000 0.0000 0.0000 (  2083 PWs)   bands (ev):

   -26.5896 -14.3189  -4.6535  -4.6535  -1.0819  -0.2656   0.4617   0.8294

          k = 0.0000 0.0613 0.0000 (  2046 PWs)   bands (ev):

   -26.4495 -14.1252  -5.1954  -5.0269  -0.8795  -0.0570   0.6697   1.0382

          k = 0.0000 0.1225 0.0000 (  2060 PWs)   bands (ev):

   -26.0375 -13.5573  -6.6846  -5.9806  -0.2699   0.5678   1.2945   1.6636

          k = 0.0000 0.1838 0.0000 (  2060 PWs)   bands (ev):

   -25.3451 -12.6140  -8.7444  -7.1364   0.7489   1.6081   2.3368   2.7049

          k = 0.0000 0.2451 0.0000 (  2054 PWs)   bands (ev):

   -24.3754 -11.3118 -11.0550  -8.2373   2.1755   3.0583   3.7966   4.1568

          k = 0.0000 0.3063 0.0000 (  2030 PWs)   bands (ev):

   -23.1428 -13.3932  -9.6883  -9.1419   4.0064   4.6789   5.3003   5.6733

          k = 0.0000 0.3676 0.0000 (  1994 PWs)   bands (ev):

   -21.6618 -15.6314  -9.7558  -7.8492   2.0671   6.2379   7.2581   7.9660

          k = 0.0000 0.4288 0.0000 (  1982 PWs)   bands (ev):

   -20.0257 -17.6390 -10.0717  -6.2177  -0.1658   8.8564   9.9396  10.6639

          k = 0.0531 0.0919 0.0000 (  2049 PWs)   bands (ev):

   -26.1754 -13.7439  -6.1152  -5.7795  -0.4731   0.3598   1.0862   1.4553

          k = 0.0531 0.1532 0.0000 (  2060 PWs)   bands (ev):

   -25.6203 -12.9892  -7.7592  -6.9762   0.3428   1.1923   1.9202   2.2887

          k = 0.0531 0.2144 0.0000 (  2054 PWs)   bands (ev):

   -24.7901 -11.8645  -9.8852  -8.1449   1.5666   2.4389   3.1715   3.5369

          k = 0.0531 0.2757 0.0000 (  2046 PWs)   bands (ev):

   -23.6885 -12.1907 -10.3982  -9.1489   3.1963   4.0821   4.8400   5.1759

          k = 0.0531 0.3369 0.0000 (  2014 PWs)   bands (ev):

   -22.3284 -14.4681  -9.8969  -8.6469   3.4973   5.2283   6.2263   6.9251

          k = 0.0531 0.3982 0.0000 (  1978 PWs)   bands (ev):

   -20.7439 -16.6017 -10.3546  -6.8096   0.8208   7.6559   8.6902   9.4253

          k = 0.0531 0.4595 0.0000 (  1970 PWs)   bands (ev):

   -19.4383 -18.1104 -10.5135  -5.7629  -0.5156  10.4570  10.4593  11.5537

          k = 0.1061 0.1838 0.0000 (  2051 PWs)   bands (ev):

   -24.9274 -12.0492  -9.0714  -8.5471   1.3651   2.2320   2.9635   3.3297

          k = 0.1061 0.2451 0.0000 (  2040 PWs)   bands (ev):

   -23.9611 -10.9687 -10.7558  -9.8049   2.7940   3.6822   4.4240   4.7822

          k = 0.1061 0.3063 0.0000 (  2022 PWs)   bands (ev):

   -22.7331 -13.1736 -10.6747  -9.1426   4.6255   4.8140   5.6108   6.3013

          k = 0.1061 0.3676 0.0000 (  1988 PWs)   bands (ev):

   -21.2574 -15.3463 -11.2618  -7.3049   2.0680   6.8547   7.8305   8.5946

          k = 0.1061 0.4288 0.0000 (  1978 PWs)   bands (ev):

   -19.6522 -17.3389 -11.5796  -5.6428  -0.1035   9.4671  10.4497  11.3016

          k = 0.1592 0.2757 0.0000 (  2015 PWs)   bands (ev):

   -22.8651 -11.9498 -11.7416  -9.3103   4.4253   5.3317   6.0935   6.4368

          k = 0.1592 0.3369 0.0000 (  1988 PWs)   bands (ev):

   -21.5199 -13.9498 -12.5431  -7.5772   3.0495   6.4537   7.3667   8.1788

          k = 0.1592 0.3982 0.0000 (  1987 PWs)   bands (ev):

   -19.9815 -16.0238 -12.9904  -5.7211   0.6959   8.8644   9.6519  10.6777

          k = 0.1592 0.4595 0.0000 (  1986 PWs)   bands (ev):

   -18.6863 -17.5118 -13.1445  -4.5975  -0.6082  10.8697  11.5719  11.6850

          k = 0.2122 0.3676 0.0000 (  1976 PWs)   bands (ev):

   -20.0989 -14.6432 -14.3892  -5.7753   1.1245   8.6631   9.2907  10.4696

          k = 0.2122 0.4288 0.0000 (  1964 PWs)   bands (ev):

   -18.5436 -16.4193 -14.7769  -3.9969  -0.7133   9.7439  11.2215  12.7016

          k = 0.2653 0.4595 0.0000 (  1962 PWs)   bands (ev):

   -17.4648 -16.2666 -16.2666  -2.2876  -2.2876   9.2671  13.7393  13.7393

     the Fermi energy is    -2.2876 ev

!    total energy              =     -22.27114052 Ry
     estimated scf accuracy    <          3.6E-12 Ry
     smearing contrib. (-TS)   =      -0.00005015 Ry
     internal energy E=F+TS    =     -22.27109037 Ry

     The total energy is F=E-TS. E is the sum of the following terms:
     one-electron contribution =    -556.18331309 Ry
     hartree contribution      =     279.21595439 Ry
     xc contribution           =      -7.86864508 Ry
     ewald contribution        =     262.56491342 Ry

     convergence has been achieved in  38 iterations

     Forces acting on atoms (cartesian axes, Ry/au):

     atom    1 type  1   force =     0.00000000    0.00000000    0.00000000
     atom    2 type  1   force =     0.00000000    0.00000000    0.00000000

     Total force =     0.000000     Total SCF correction =     0.000000


     Computing stress (Cartesian axis) and pressure

          total   stress  (Ry/bohr**3)                   (kbar)     P=      396.81
   0.00424479  -0.00000000   0.00000000          624.43       -0.00        0.00
  -0.00000000   0.00424479   0.00000000           -0.00      624.43        0.00
   0.00000000   0.00000000  -0.00039712            0.00        0.00      -58.42

     Energy error            =      6.9E-01
     Gradient error          =      0.0E+00
     Cell gradient error     =      4.2E-03


     number of scf cycles    =   3
     number of bfgs steps    =   2

     enthalpy old            =     -21.5845098425 Ry
     enthalpy new            =     -22.2711405161 Ry

     CASE: enthalpy_new < enthalpy_old

     new trust radius        =       0.3456005964 bohr
     new conv_thr            =            1.0E-10 Ry

     new unit-cell volume =    614.89609 a.u.^3 (    91.11820 Ang^3 )
     density =      0.43777 g/cm^3

CELL_PARAMETERS (alat=  3.10000000)
   1.350660951   0.000000000   0.000000000
  -0.675330476   1.169706695   0.000000000
   0.000000000   0.000000000  13.064516129

ATOMIC_POSITIONS (crystal)
C             0.3333333333        0.6666666667        0.5000000000
C             0.6666666667        0.3333333333        0.5000000000



     Writing output data file ./work/LiC310.save/
     NEW-OLD atomic charge density approx. for the potential

     negative rho (up, down):  6.857E-04 0.000E+00
     extrapolated charge    9.07425, renormalised to    8.00000

     total cpu time spent up to now is       16.5 secs

     Self-consistent Calculation

     iteration #  1     ecut=    50.00 Ry     beta= 0.70
     Davidson diagonalization with overlap
     c_bands:  1 eigenvalues not converged
     c_bands:  4 eigenvalues not converged
     c_bands:  5 eigenvalues not converged
     c_bands:  5 eigenvalues not converged
     c_bands:  5 eigenvalues not converged
     c_bands:  5 eigenvalues not converged
     c_bands:  3 eigenvalues not converged
     c_bands:  4 eigenvalues not converged
     c_bands:  5 eigenvalues not converged
     c_bands:  5 eigenvalues not converged
     c_bands:  5 eigenvalues not converged
     c_bands:  5 eigenvalues not converged
     c_bands:  5 eigenvalues not converged
     c_bands:  5 eigenvalues not converged
     c_bands:  5 eigenvalues not converged
     c_bands:  5 eigenvalues not converged
     c_bands:  2 eigenvalues not converged
     c_bands:  5 eigenvalues not converged
     c_bands:  2 eigenvalues not converged
     c_bands:  2 eigenvalues not converged
     c_bands:  5 eigenvalues not converged
     c_bands:  2 eigenvalues not converged
     c_bands:  5 eigenvalues not converged
     c_bands:  2 eigenvalues not converged
     c_bands:  5 eigenvalues not converged
     c_bands:  2 eigenvalues not converged
     c_bands:  5 eigenvalues not converged
     ethr =  1.00E-06,  avg # of iterations = 26.7

     negative rho (up, down):  1.007E-04 0.000E+00

     total cpu time spent up to now is       17.3 secs

     total energy              =     813.93165517 Ry
     estimated scf accuracy    <     455.72815317 Ry

     iteration #  2     ecut=    50.00 Ry     beta= 0.70
     Davidson diagonalization with overlap
     c_bands:  1 eigenvalues not converged
     c_bands:  3 eigenvalues not converged
     c_bands:  1 eigenvalues not converged
     c_bands:  1 eigenvalues not converged
     c_bands:  3 eigenvalues not converged
     c_bands:  1 eigenvalues not converged
     c_bands:  4 eigenvalues not converged
     c_bands:  4 eigenvalues not converged
     c_bands:  4 eigenvalues not converged
     c_bands:  4 eigenvalues not converged
     c_bands:  4 eigenvalues not converged
     c_bands:  3 eigenvalues not converged
     c_bands:  4 eigenvalues not converged
     c_bands:  3 eigenvalues not converged
     ethr =  1.00E-02,  avg # of iterations = 40.6

     negative rho (up, down):  5.032E-05 0.000E+00

     total cpu time spent up to now is       18.5 secs

     total energy              =    -176.29694895 Ry
     estimated scf accuracy    <     231.29659560 Ry

     iteration #  3     ecut=    50.00 Ry     beta= 0.70
     Davidson diagonalization with overlap
     c_bands:  3 eigenvalues not converged
     ethr =  1.00E-02,  avg # of iterations =  5.0

     negative rho (up, down):  1.338E-05 0.000E+00

     total cpu time spent up to now is       18.6 secs

     total energy              =     -61.56967182 Ry
     estimated scf accuracy    <      79.96960896 Ry

     iteration #  4     ecut=    50.00 Ry     beta= 0.70
     Davidson diagonalization with overlap
     ethr =  1.00E-02,  avg # of iterations =  3.6

     negative rho (up, down):  1.309E-05 0.000E+00

     total cpu time spent up to now is       18.8 secs

     total energy              =     -57.05135261 Ry
     estimated scf accuracy    <      20.68092196 Ry

     iteration #  5     ecut=    50.00 Ry     beta= 0.70
     Davidson diagonalization with overlap
     ethr =  1.00E-02,  avg # of iterations =  1.3

     negative rho (up, down):  2.923E-07 0.000E+00

     total cpu time spent up to now is       18.8 secs

     total energy              =     -24.73303593 Ry
     estimated scf accuracy    <      18.15677587 Ry

     iteration #  6     ecut=    50.00 Ry     beta= 0.70
     Davidson diagonalization with overlap
     ethr =  1.00E-02,  avg # of iterations =  4.4

     negative rho (up, down):  4.246E-06 0.000E+00

     total cpu time spent up to now is       19.0 secs

     total energy              =     -36.99055112 Ry
     estimated scf accuracy    <       1.50948048 Ry

     iteration #  7     ecut=    50.00 Ry     beta= 0.70
     Davidson diagonalization with overlap
     ethr =  1.00E-02,  avg # of iterations =  2.3

     negative rho (up, down):  4.244E-06 0.000E+00

     total cpu time spent up to now is       19.1 secs

     total energy              =     -37.07214786 Ry
     estimated scf accuracy    <       7.59894653 Ry

     iteration #  8     ecut=    50.00 Ry     beta= 0.70
     Davidson diagonalization with overlap
     ethr =  1.00E-02,  avg # of iterations =  1.0

     negative rho (up, down):  2.246E-06 0.000E+00

     total cpu time spent up to now is       19.1 secs

     total energy              =     -32.80859207 Ry
     estimated scf accuracy    <       7.62047046 Ry

     iteration #  9     ecut=    50.00 Ry     beta= 0.70
     Davidson diagonalization with overlap
     ethr =  1.00E-02,  avg # of iterations =  1.0

     negative rho (up, down):  1.886E-08 0.000E+00

     total cpu time spent up to now is       19.2 secs

     total energy              =     -23.41547240 Ry
     estimated scf accuracy    <       5.44343318 Ry

     iteration # 10     ecut=    50.00 Ry     beta= 0.70
     Davidson diagonalization with overlap
     ethr =  1.00E-02,  avg # of iterations =  2.3

     negative rho (up, down):  5.030E-04 0.000E+00

     total cpu time spent up to now is       19.3 secs

     total energy              =     -22.40363710 Ry
     estimated scf accuracy    <       0.65707361 Ry

     iteration # 11     ecut=    50.00 Ry     beta= 0.70
     Davidson diagonalization with overlap
     ethr =  8.21E-03,  avg # of iterations =  7.1

     negative rho (up, down):  3.852E-04 0.000E+00

     total cpu time spent up to now is       19.5 secs

     total energy              =     -22.61568303 Ry
     estimated scf accuracy    <       0.79973968 Ry

     iteration # 12     ecut=    50.00 Ry     beta= 0.70
     Davidson diagonalization with overlap
     ethr =  8.21E-03,  avg # of iterations =  1.1

     negative rho (up, down):  6.264E-03 0.000E+00

     total cpu time spent up to now is       19.6 secs

     total energy              =     -22.69731097 Ry
     estimated scf accuracy    <       0.79505351 Ry

     iteration # 13     ecut=    50.00 Ry     beta= 0.70
     Davidson diagonalization with overlap
     ethr =  8.21E-03,  avg # of iterations =  1.5

     negative rho (up, down):  9.698E-03 0.000E+00

     total cpu time spent up to now is       19.7 secs

     total energy              =     -22.65940782 Ry
     estimated scf accuracy    <       2.27601969 Ry

     iteration # 14     ecut=    50.00 Ry     beta= 0.70
     Davidson diagonalization with overlap
     ethr =  8.21E-03,  avg # of iterations =  1.0

     negative rho (up, down):  1.820E-02 0.000E+00

     total cpu time spent up to now is       19.7 secs

     total energy              =     -22.59003768 Ry
     estimated scf accuracy    <       1.12502631 Ry

     iteration # 15     ecut=    50.00 Ry     beta= 0.70
     Davidson diagonalization with overlap
     ethr =  8.21E-03,  avg # of iterations =  1.1

     negative rho (up, down):  1.564E-02 0.000E+00

     total cpu time spent up to now is       19.8 secs

     total energy              =     -22.55781938 Ry
     estimated scf accuracy    <       0.49767467 Ry

     iteration # 16     ecut=    50.00 Ry     beta= 0.70
     Davidson diagonalization with overlap
     ethr =  6.22E-03,  avg # of iterations =  1.3

     negative rho (up, down):  1.612E-02 0.000E+00

     total cpu time spent up to now is       19.9 secs

     total energy              =     -22.57197621 Ry
     estimated scf accuracy    <       0.22387540 Ry

     iteration # 17     ecut=    50.00 Ry     beta= 0.70
     Davidson diagonalization with overlap
     ethr =  2.80E-03,  avg # of iterations =  1.1

     negative rho (up, down):  1.073E-01 0.000E+00

     total cpu time spent up to now is       20.0 secs

     total energy              =     -22.50040122 Ry
     estimated scf accuracy    <       0.19975097 Ry

     iteration # 18     ecut=    50.00 Ry     beta= 0.70
     Davidson diagonalization with overlap
     ethr =  2.50E-03,  avg # of iterations =  4.6

     negative rho (up, down):  5.337E-02 0.000E+00

     total cpu time spent up to now is       20.1 secs

     total energy              =     -22.48136885 Ry
     estimated scf accuracy    <       0.06085877 Ry

     iteration # 19     ecut=    50.00 Ry     beta= 0.70
     Davidson diagonalization with overlap
     ethr =  7.61E-04,  avg # of iterations =  5.3

     negative rho (up, down):  4.980E-02 0.000E+00

     total cpu time spent up to now is       20.2 secs

     total energy              =     -22.50492124 Ry
     estimated scf accuracy    <       0.00845416 Ry

     iteration # 20     ecut=    50.00 Ry     beta= 0.70
     Davidson diagonalization with overlap
     ethr =  1.06E-04,  avg # of iterations =  2.9

     negative rho (up, down):  4.679E-02 0.000E+00

     total cpu time spent up to now is       20.3 secs

     total energy              =     -22.50393387 Ry
     estimated scf accuracy    <       0.00711334 Ry

     iteration # 21     ecut=    50.00 Ry     beta= 0.70
     Davidson diagonalization with overlap
     ethr =  8.89E-05,  avg # of iterations =  3.3

     negative rho (up, down):  4.490E-02 0.000E+00

     total cpu time spent up to now is       20.4 secs

     total energy              =     -22.50293455 Ry
     estimated scf accuracy    <       0.00558187 Ry

     iteration # 22     ecut=    50.00 Ry     beta= 0.70
     Davidson diagonalization with overlap
     ethr =  6.98E-05,  avg # of iterations =  1.0

     negative rho (up, down):  2.676E-02 0.000E+00

     total cpu time spent up to now is       20.5 secs

     total energy              =     -22.49963693 Ry
     estimated scf accuracy    <       0.00407164 Ry

     iteration # 23     ecut=    50.00 Ry     beta= 0.70
     Davidson diagonalization with overlap
     ethr =  5.09E-05,  avg # of iterations =  5.8

     negative rho (up, down):  2.062E-02 0.000E+00

     total cpu time spent up to now is       20.6 secs

     total energy              =     -22.49978995 Ry
     estimated scf accuracy    <       0.00176893 Ry

     iteration # 24     ecut=    50.00 Ry     beta= 0.70
     Davidson diagonalization with overlap
     ethr =  2.21E-05,  avg # of iterations =  6.6

     negative rho (up, down):  1.645E-02 0.000E+00

     total cpu time spent up to now is       20.8 secs

     total energy              =     -22.49935960 Ry
     estimated scf accuracy    <       0.00207438 Ry

     iteration # 25     ecut=    50.00 Ry     beta= 0.70
     Davidson diagonalization with overlap
     ethr =  2.21E-05,  avg # of iterations =  8.9

     negative rho (up, down):  1.472E-02 0.000E+00

     total cpu time spent up to now is       21.0 secs

     total energy              =     -22.49916013 Ry
     estimated scf accuracy    <       0.00099662 Ry

     iteration # 26     ecut=    50.00 Ry     beta= 0.70
     Davidson diagonalization with overlap
     ethr =  1.25E-05,  avg # of iterations =  4.6

     negative rho (up, down):  7.514E-03 0.000E+00

     total cpu time spent up to now is       21.1 secs

     total energy              =     -22.49833085 Ry
     estimated scf accuracy    <       0.00081167 Ry

     iteration # 27     ecut=    50.00 Ry     beta= 0.70
     Davidson diagonalization with overlap
     c_bands:  1 eigenvalues not converged
     c_bands:  2 eigenvalues not converged
     ethr =  1.01E-05,  avg # of iterations =  9.3

     negative rho (up, down):  2.607E-04 0.000E+00

     total cpu time spent up to now is       21.3 secs

     total energy              =     -22.49791547 Ry
     estimated scf accuracy    <       0.00025001 Ry

     iteration # 28     ecut=    50.00 Ry     beta= 0.70
     Davidson diagonalization with overlap
     c_bands:  1 eigenvalues not converged
     c_bands:  1 eigenvalues not converged
     ethr =  3.13E-06,  avg # of iterations = 10.2

     negative rho (up, down):  2.282E-05 0.000E+00

     total cpu time spent up to now is       21.5 secs

     total energy              =     -22.49793747 Ry
     estimated scf accuracy    <       0.00000048 Ry

     iteration # 29     ecut=    50.00 Ry     beta= 0.70
     Davidson diagonalization with overlap
     c_bands:  1 eigenvalues not converged
     ethr =  6.00E-09,  avg # of iterations =  7.0

     total cpu time spent up to now is       21.6 secs

     total energy              =     -22.49793806 Ry
     estimated scf accuracy    <       0.00000007 Ry

     iteration # 30     ecut=    50.00 Ry     beta= 0.70
     Davidson diagonalization with overlap
     ethr =  8.74E-10,  avg # of iterations =  5.1

     total cpu time spent up to now is       21.8 secs

     total energy              =     -22.49793807 Ry
     estimated scf accuracy    <          6.0E-09 Ry

     iteration # 31     ecut=    50.00 Ry     beta= 0.70
     Davidson diagonalization with overlap
     ethr =  7.47E-11,  avg # of iterations =  2.3

     total cpu time spent up to now is       21.9 secs

     End of self-consistent calculation

          k = 0.0000 0.0000 0.0000 (  2083 PWs)   bands (ev):

   -25.5695 -13.2760  -5.8832  -5.8832  -1.0629  -0.2635   0.4680   0.8411

          k =-0.0000 0.0570 0.0000 (  2046 PWs)   bands (ev):

   -25.4419 -13.1116  -6.3662  -6.1799  -0.8870  -0.0833   0.6480   1.0215

          k =-0.0000 0.1140 0.0000 (  2060 PWs)   bands (ev):

   -25.0736 -12.6314  -7.6965  -6.9521  -0.3588   0.4562   1.1887   1.5614

          k =-0.0000 0.1710 0.0000 (  2060 PWs)   bands (ev):

   -24.4480 -11.8336  -9.5408  -7.9002   0.5237   1.3541   2.0906   2.4603

          k =-0.0000 0.2280 0.0000 (  2054 PWs)   bands (ev):

   -23.5652 -11.6164 -10.7335  -8.8118   1.7593   2.6025   3.3534   3.7082

[...]

          k = 0.0925 0.3740 0.0000 (  1978 PWs)   bands (ev):

   -18.8530 -17.0778 -11.8030  -6.2897  -1.9940   6.7477   7.0093   7.7206

          k = 0.1388 0.2404 0.0000 (  2015 PWs)   bands (ev):

   -21.5528 -12.9420 -11.7143  -8.8248   1.6763   3.1565   3.9607   4.7563

          k = 0.1388 0.2939 0.0000 (  1988 PWs)   bands (ev):

   -20.4353 -14.3225 -12.5956  -7.5937  -0.0188   4.6992   5.4713   6.3402

          k = 0.1388 0.3473 0.0000 (  1987 PWs)   bands (ev):

   -19.1619 -15.9729 -13.0369  -6.3009  -1.6181   6.5252   7.0795   8.2339

          k = 0.1388 0.4007 0.0000 (  1986 PWs)   bands (ev):

   -18.0291 -17.2584 -13.1794  -5.5556  -2.4755   7.8017   8.5152   8.6540

          k = 0.1851 0.3206 0.0000 (  1976 PWs)   bands (ev):

   -19.2602 -15.1213 -13.9172  -6.3215  -1.4181   6.3718   6.8127   8.0352

          k = 0.1851 0.3740 0.0000 (  1964 PWs)   bands (ev):

   -17.9716 -16.3572 -14.4924  -5.0920  -2.7073   7.1451   8.2869   9.6473

          k = 0.2314 0.4007 0.0000 (  1962 PWs)   bands (ev):

   -16.8529 -16.8529 -15.3348  -3.8774  -3.8774   6.8833  10.0125  10.0125

     the Fermi energy is    -3.8774 ev

!    total energy              =     -22.55572571 Ry
     estimated scf accuracy    <          7.2E-11 Ry
     smearing contrib. (-TS)   =      -0.00005015 Ry
     internal energy E=F+TS    =     -22.55567556 Ry

     The total energy is F=E-TS. E is the sum of the following terms:
     one-electron contribution =    -421.07502826 Ry
     hartree contribution      =     211.24216150 Ry
     xc contribution           =      -7.17698619 Ry
     ewald contribution        =     194.45417739 Ry

     convergence has been achieved in   2 iterations

     Forces acting on atoms (cartesian axes, Ry/au):

     atom    1 type  1   force =     0.00000000    0.00000000    0.00000000
     atom    2 type  1   force =     0.00000000    0.00000000    0.00000000

     Total force =     0.000000     Total SCF correction =     0.000000


     Computing stress (Cartesian axis) and pressure

          total   stress  (Ry/bohr**3)                   (kbar)     P=      -15.90
   0.00000002  -0.00000000  -0.00000000            0.00       -0.00       -0.00
  -0.00000000   0.00000002  -0.00000000           -0.00        0.00       -0.00
   0.00000000   0.00000000  -0.00032426            0.00        0.00      -47.70

     Message from routine bfgs:
     history already reset at previous step: stopping
     Energy error            =      5.0E-11
     Gradient error          =      0.0E+00
     Cell gradient error     =      2.1E-08


     bfgs converged in  10 scf cycles and   9 bfgs steps
     (criteria: energy <  1.0E-04 Ry, force <  1.0E-08Ry/Bohr, cell <  1.0E-03kbar)

     End of BFGS Geometry Optimization

     Final enthalpy =     -22.5557257056 Ry

     File ./work/LiC310.bfgs deleted, as requested
Begin final coordinates
     new unit-cell volume =    699.62031 a.u.^3 (   103.67303 Ang^3 )
     density =      0.38475 g/cm^3

CELL_PARAMETERS (alat=  3.10000000)
   1.440710371  -0.000000000   0.000000000
  -0.720355186   1.247691781   0.000000000
   0.000000000   0.000000000  13.064516129

ATOMIC_POSITIONS (crystal)
C             0.3333333333        0.6666666667        0.5000000000
C             0.6666666667        0.3333333333        0.5000000000
End final coordinates



     Writing output data file ./work/LiC310.save/

     Final scf calculation at the relaxed structure.
     The G-vectors are recalculated for the final unit cell
     Results may differ from those at the preceding step.
 
     Parallelization info
     --------------------
     sticks:   dense  smooth     PW     G-vecs:    dense   smooth      PW
     Min           8       8      2                 1028     1028     166
     Max           9       9      3                 1059     1059     209
     Sum         271     271     85                33273    33273    6103
 


     bravais-lattice index     =            4
     lattice parameter (alat)  =       3.1000  a.u.
     unit-cell volume          =     699.6203 (a.u.)^3
     number of atoms/cell      =            2
     number of atomic types    =            1
     number of electrons       =         8.00
     number of Kohn-Sham states=            8
     kinetic-energy cutoff     =      50.0000  Ry
     charge density cutoff     =     200.0000  Ry
     scf convergence threshold =      1.0E-10
     mixing beta               =       0.7000
     number of iterations used =            8  plain     mixing
     press convergence thresh. =      1.0E-03
     Exchange-correlation= PBE
                           (   1   4   3   4   0   0   0)

     celldm(1)=   3.100000  celldm(2)=   0.000000  celldm(3)=  13.064516
     celldm(4)=   0.000000  celldm(5)=   0.000000  celldm(6)=   0.000000

     crystal axes: (cart. coord. in units of alat)
               a(1) = (   1.440710  -0.000000   0.000000 )  
               a(2) = (  -0.720355   1.247692   0.000000 )  
               a(3) = (   0.000000   0.000000  13.064516 )  

     reciprocal axes: (cart. coord. in units 2 pi/alat)
               b(1) = (  0.694102  0.400740  0.000000 )  
               b(2) = (  0.000000  0.801480  0.000000 )  
               b(3) = (  0.000000  0.000000  0.076543 )  


     PseudoPot. # 1 for C  read from file:
     /home/yhkim/qe-6.7/pseudo/ONCV1/1.2/C_ONCV_PBE-1.2.upf
     MD5 check sum: 1a5f83a7b1f58d24996abe00ed223ac6
     Pseudo is Norm-conserving, Zval =  4.0
     Generated using ONCVPSP code by D. R. Hamann
     Using radial grid of  602 points,  4 beta functions with: 
                l(1) =   0
                l(2) =   0
                l(3) =   1
                l(4) =   1

     atomic species   valence    mass     pseudopotential
        C              4.00    12.01070     C ( 1.00)

     24 Sym. Ops., with inversion, found



   Cartesian axes

     site n.     atom                  positions (alat units)
         1           C   tau(   1) = (  -0.0000000   0.8317945   6.5322581  )
         2           C   tau(   2) = (   0.7203552   0.4158973   6.5322581  )

     number of k points=    27  Methfessel-Paxton smearing, width (Ry)=  0.0100
                       cart. coord. in units 2pi/alat
        k(    1) = (   0.0000000   0.0000000   0.0000000), wk =   0.0088889
        k(    2) = (   0.0000000   0.0534320   0.0000000), wk =   0.0533333
        k(    3) = (   0.0000000   0.1068640   0.0000000), wk =   0.0533333
        k(    4) = (   0.0000000   0.1602960   0.0000000), wk =   0.0533333
        k(    5) = (   0.0000000   0.2137280   0.0000000), wk =   0.0533333
        k(    6) = (   0.0000000   0.2671600   0.0000000), wk =   0.0533333
        k(    7) = (   0.0000000   0.3205920   0.0000000), wk =   0.0533333
        k(    8) = (   0.0000000   0.3740240   0.0000000), wk =   0.0533333
        k(    9) = (   0.0462735   0.0801480   0.0000000), wk =   0.0533333
        k(   10) = (   0.0462735   0.1335800   0.0000000), wk =   0.1066667
        k(   11) = (   0.0462735   0.1870120   0.0000000), wk =   0.1066667
        k(   12) = (   0.0462735   0.2404440   0.0000000), wk =   0.1066667
        k(   13) = (   0.0462735   0.2938760   0.0000000), wk =   0.1066667
        k(   14) = (   0.0462735   0.3473080   0.0000000), wk =   0.1066667
        k(   15) = (   0.0462735   0.4007400   0.0000000), wk =   0.0533333
        k(   16) = (   0.0925469   0.1602960   0.0000000), wk =   0.0533333
        k(   17) = (   0.0925469   0.2137280   0.0000000), wk =   0.1066667
        k(   18) = (   0.0925469   0.2671600   0.0000000), wk =   0.1066667
        k(   19) = (   0.0925469   0.3205920   0.0000000), wk =   0.1066667
        k(   20) = (   0.0925469   0.3740240   0.0000000), wk =   0.1066667
        k(   21) = (   0.1388204   0.2404440   0.0000000), wk =   0.0533333
        k(   22) = (   0.1388204   0.2938760   0.0000000), wk =   0.1066667
        k(   23) = (   0.1388204   0.3473080   0.0000000), wk =   0.1066667
        k(   24) = (   0.1388204   0.4007400   0.0000000), wk =   0.0533333
        k(   25) = (   0.1850939   0.3205920   0.0000000), wk =   0.0533333
        k(   26) = (   0.1850939   0.3740240   0.0000000), wk =   0.1066667
        k(   27) = (   0.2313673   0.4007400   0.0000000), wk =   0.0177778

     Dense  grid:    33273 G-vectors     FFT dimensions: (  24,  24, 192)

     Estimated max dynamical RAM per process >       1.87 MB

     Estimated total dynamical RAM >      59.90 MB
 ----2D----2D----2D----2D----2D----2D----2D----2D----2D----2D----2D----2D
  The code is running with the 2D cutoff
  Please refer to:
  Sohier, T., Calandra, M., & Mauri, F. (2017), 
  Density functional perturbation theory for gated two-dimensional heterostructu
 res:
  Theoretical developments and application to flexural phonons in graphene.
  Physical Review B, 96(7), 75448. https://doi.org/10.1103/PhysRevB.96.075448
 ----2D----2D----2D----2D----2D----2D----2D----2D----2D----2D----2D----2D

     Initial potential from superposition of free atoms

     starting charge    7.98607, renormalised to    8.00000

     negative rho (up, down):  1.086E-04 0.000E+00
     Starting wfcs are random

     total cpu time spent up to now is       36.9 secs

     Self-consistent Calculation

     iteration #  1     ecut=    50.00 Ry     beta= 0.70
     Davidson diagonalization with overlap
     c_bands:  3 eigenvalues not converged
     c_bands:  2 eigenvalues not converged
     c_bands:  4 eigenvalues not converged
     c_bands:  4 eigenvalues not converged
     c_bands:  4 eigenvalues not converged
     c_bands:  3 eigenvalues not converged
     c_bands:  2 eigenvalues not converged
     c_bands:  2 eigenvalues not converged
     c_bands:  4 eigenvalues not converged
     c_bands:  4 eigenvalues not converged
     c_bands:  4 eigenvalues not converged
     c_bands:  3 eigenvalues not converged
     c_bands:  2 eigenvalues not converged
     c_bands:  3 eigenvalues not converged
     c_bands:  4 eigenvalues not converged
     c_bands:  4 eigenvalues not converged
     c_bands:  4 eigenvalues not converged
     c_bands:  3 eigenvalues not converged
     c_bands:  3 eigenvalues not converged
     c_bands:  4 eigenvalues not converged
     c_bands:  4 eigenvalues not converged
     c_bands:  3 eigenvalues not converged
     c_bands:  3 eigenvalues not converged
     c_bands:  3 eigenvalues not converged
     c_bands:  3 eigenvalues not converged
     c_bands:  3 eigenvalues not converged
     ethr =  1.00E-06,  avg # of iterations = 22.9

     negative rho (up, down):  2.148E-05 0.000E+00

     total cpu time spent up to now is       37.6 secs

     total energy              =     -22.72890267 Ry
     estimated scf accuracy    <       0.26790702 Ry

     iteration #  2     ecut=    50.00 Ry     beta= 0.70
     Davidson diagonalization with overlap
     ethr =  3.35E-03,  avg # of iterations =  2.3

     negative rho (up, down):  2.509E-06 0.000E+00

     total cpu time spent up to now is       37.7 secs

     total energy              =     -22.77052332 Ry
     estimated scf accuracy    <       0.00257330 Ry

     iteration #  3     ecut=    50.00 Ry     beta= 0.70
     Davidson diagonalization with overlap
     ethr =  3.22E-05,  avg # of iterations =  9.6

     total cpu time spent up to now is       38.0 secs

     total energy              =     -22.77104069 Ry
     estimated scf accuracy    <       0.00018462 Ry

     iteration #  4     ecut=    50.00 Ry     beta= 0.70
     Davidson diagonalization with overlap
     c_bands:  1 eigenvalues not converged
     c_bands:  1 eigenvalues not converged
     ethr =  2.31E-06,  avg # of iterations =  6.7

     total cpu time spent up to now is       38.1 secs

     total energy              =     -22.77105587 Ry
     estimated scf accuracy    <       0.00000148 Ry

     iteration #  5     ecut=    50.00 Ry     beta= 0.70
     Davidson diagonalization with overlap
     ethr =  1.86E-08,  avg # of iterations =  4.4

     total cpu time spent up to now is       38.2 secs

     total energy              =     -22.77105740 Ry
     estimated scf accuracy    <       0.00000004 Ry

     iteration #  6     ecut=    50.00 Ry     beta= 0.70
     Davidson diagonalization with overlap
     ethr =  5.08E-10,  avg # of iterations =  2.4

     total cpu time spent up to now is       38.4 secs

     total energy              =     -22.77105742 Ry
     estimated scf accuracy    <          1.2E-09 Ry

     iteration #  7     ecut=    50.00 Ry     beta= 0.70
     Davidson diagonalization with overlap
     ethr =  1.56E-11,  avg # of iterations =  3.1

     total cpu time spent up to now is       38.5 secs

     End of self-consistent calculation

          k = 0.0000 0.0000 0.0000 (  4039 PWs)   bands (ev):

   -24.4439 -12.3810  -6.8460  -6.8460  -1.0040  -0.2066   0.5743   0.9301

          k = 0.0000 0.0534 0.0000 (  4097 PWs)   bands (ev):

   -24.3312 -12.2419  -7.3082  -7.1083  -0.8492  -0.0489   0.7327   1.0882

          k = 0.0000 0.1069 0.0000 (  4123 PWs)   bands (ev):

   -23.9934 -11.8268  -8.5079  -7.7532  -0.3843   0.4237   1.2079   1.5618

          k = 0.0000 0.1603 0.0000 (  4121 PWs)   bands (ev):

   -23.4326 -11.1412 -10.1567  -8.5522   0.3904   1.2094   2.0000   2.3496

          k = 0.0000 0.2137 0.0000 (  4153 PWs)   bands (ev):

   -22.6536 -12.0090 -10.2042  -9.3229   1.4729   2.2920   3.1083   3.4030

          k = 0.0000 0.2672 0.0000 (  4165 PWs)   bands (ev):

   -21.6623 -13.9021  -9.9623  -9.0475   1.5792   2.8582   3.7535   4.5240

          k = 0.0000 0.3206 0.0000 (  4182 PWs)   bands (ev):

   -20.4700 -15.7361 -10.4122  -7.7618  -0.4151   4.4994   4.9850   5.4605

          k = 0.0000 0.3740 0.0000 (  4196 PWs)   bands (ev):

   -19.1140 -17.4231 -10.6436  -6.6728  -1.8824   4.8239   6.5537   7.4679

          k = 0.0463 0.0801 0.0000 (  4131 PWs)   bands (ev):

   -24.1059 -11.9649  -8.0740  -7.6225  -0.5392   0.2662   1.0495   1.4040

          k = 0.0463 0.1336 0.0000 (  4139 PWs)   bands (ev):

   -23.6566 -11.4147  -9.3971  -8.4428   0.0810   0.8956   1.6834   2.0351

          k = 0.0463 0.1870 0.0000 (  4154 PWs)   bands (ev):

   -22.9866 -11.0868 -10.6023  -9.2875   1.0105   1.8351   2.6341   2.9767

          k = 0.0463 0.2404 0.0000 (  4172 PWs)   bands (ev):

   -22.1019 -12.9300 -10.0189  -9.5495   2.2460   2.5234   3.1550   3.9002

          k = 0.0463 0.2939 0.0000 (  4174 PWs)   bands (ev):

   -21.0100 -14.7778 -10.5735  -8.3120   0.5129   3.7799   4.6733   5.4092

          k = 0.0463 0.3473 0.0000 (  4184 PWs)   bands (ev):

   -19.7287 -16.5388 -10.9186  -7.0501  -1.2792   5.2979   5.6938   6.5274

          k = 0.0463 0.4007 0.0000 (  4187 PWs)   bands (ev):

   -18.5300 -17.9014 -11.0343  -6.3747  -2.1386   5.3081   7.6728   7.8201

          k = 0.0925 0.1603 0.0000 (  4137 PWs)   bands (ev):

   -23.0978 -10.7354 -10.5409  -9.5282   0.8567   1.6805   2.4761   2.8225

          k = 0.0925 0.2137 0.0000 (  4180 PWs)   bands (ev):

   -22.3227 -12.0282 -10.5258  -9.8052   1.9401   2.7637   3.2379   3.5855

          k = 0.0925 0.2672 0.0000 (  4200 PWs)   bands (ev):

   -21.3375 -13.7487 -11.2493  -8.6562   1.3056   3.3269   4.1822   5.0100

          k = 0.0925 0.3206 0.0000 (  4197 PWs)   bands (ev):

   -20.1546 -15.4982 -11.7253  -7.3708  -0.5549   5.0075   5.8674   6.6772

          k = 0.0925 0.3740 0.0000 (  4198 PWs)   bands (ev):

   -18.8167 -17.1381 -11.9641  -6.2573  -1.9768   6.6189   7.0127   7.7481

          k = 0.1388 0.2404 0.0000 (  4193 PWs)   bands (ev):

   -21.4470 -13.0592 -11.8465  -8.7716   1.6421   3.1747   4.0091   4.8532

          k = 0.1388 0.2939 0.0000 (  4214 PWs)   bands (ev):

   -20.3707 -14.4516 -12.7205  -7.5487  -0.0328   4.7064   5.5127   6.4346

          k = 0.1388 0.3473 0.0000 (  4209 PWs)   bands (ev):

   -19.1157 -16.0361 -13.1506  -6.2675  -1.6110   6.5172   7.1096   8.3111

          k = 0.1388 0.4007 0.0000 (  4219 PWs)   bands (ev):

   -17.9732 -17.3056 -13.2846  -5.5272  -2.4575   7.8436   8.4037   8.4704

          k = 0.1851 0.3206 0.0000 (  4227 PWs)   bands (ev):

   -19.2199 -15.2094 -14.0201  -6.2881  -1.4228   6.3664   6.8465   8.1370

          k = 0.1851 0.3740 0.0000 (  4219 PWs)   bands (ev):

   -17.9421 -16.4013 -14.5853  -5.0686  -2.6981   7.2125   8.2492   9.7206

          k = 0.2314 0.4007 0.0000 (  4221 PWs)   bands (ev):

   -16.8618 -16.8618 -15.4244  -3.8558  -3.8558   6.9665   9.8209   9.8210

     the Fermi energy is    -3.8558 ev

!    total energy              =     -22.77105742 Ry
     estimated scf accuracy    <          9.2E-12 Ry
     smearing contrib. (-TS)   =      -0.00005015 Ry
     internal energy E=F+TS    =     -22.77100727 Ry

     The total energy is F=E-TS. E is the sum of the following terms:
     one-electron contribution =    -421.47852248 Ry
     hartree contribution      =     211.45030136 Ry
     xc contribution           =      -7.19748173 Ry
     ewald contribution        =     194.45469559 Ry

     convergence has been achieved in   7 iterations

     Forces acting on atoms (cartesian axes, Ry/au):

     atom    1 type  1   force =     0.00000000    0.00000000    0.00000000
     atom    2 type  1   force =     0.00000000    0.00000000    0.00000000

     Total force =     0.000000     Total SCF correction =     0.000000


     Computing stress (Cartesian axis) and pressure

          total   stress  (Ry/bohr**3)                   (kbar)     P=       46.54
   0.00053461  -0.00000000   0.00000000           78.64       -0.00        0.00
  -0.00000000   0.00053461   0.00000000           -0.00       78.64        0.00
   0.00000000   0.00000000  -0.00012013            0.00        0.00      -17.67


     Writing output data file ./work/LiC310.save/
 
     init_run     :      0.13s CPU      0.15s WALL (       2 calls)
     electrons    :     34.46s CPU     37.96s WALL (      11 calls)
     update_pot   :      0.05s CPU      0.06s WALL (       9 calls)
     forces       :      0.05s CPU      0.06s WALL (      11 calls)
     stress       :      0.14s CPU      0.15s WALL (      11 calls)

     Called by init_run:
     wfcinit      :      0.09s CPU      0.10s WALL (       2 calls)
     potinit      :      0.03s CPU      0.03s WALL (       2 calls)
     hinit0       :      0.01s CPU      0.01s WALL (       2 calls)

     Called by electrons:
     c_bands      :     30.83s CPU     33.82s WALL (     245 calls)
     sum_band     :      3.25s CPU      3.55s WALL (     245 calls)
     v_of_rho     :      0.27s CPU      0.31s WALL (     253 calls)
     mix_rho      :      0.08s CPU      0.08s WALL (     245 calls)

     Called by c_bands:
     init_us_2    :      0.21s CPU      0.23s WALL (   13878 calls)
     cegterg      :     30.24s CPU     33.12s WALL (    6827 calls)

     Called by *egterg:
     cdiaghg      :      3.44s CPU      3.75s WALL (   39827 calls)
     h_psi        :     24.51s CPU     26.86s WALL (   40277 calls)
     g_psi        :      0.08s CPU      0.09s WALL (   33396 calls)

     Called by h_psi:
     h_psi:calbec :      0.69s CPU      0.76s WALL (   40277 calls)
     vloc_psi     :     23.22s CPU     25.45s WALL (   40277 calls)
     add_vuspsi   :      0.28s CPU      0.31s WALL (   40277 calls)

     General routines
     calbec       :      0.62s CPU      0.68s WALL (   41762 calls)
     fft          :      0.24s CPU      0.26s WALL (    2619 calls)
     ffts         :      0.02s CPU      0.02s WALL (     245 calls)
     fftw         :     24.93s CPU     27.32s WALL (  480202 calls)
 
     Parallel routines
     fft_scatt_xy :      1.35s CPU      1.47s WALL (  483066 calls)
     fft_scatt_yz :     11.24s CPU     12.30s WALL (  483066 calls)
 
     PWSCF        :     34.94s CPU     38.74s WALL

 
   This run was terminated on:  15:39:53  19Jan2024            

=------------------------------------------------------------------------------=
   JOB DONE.
=------------------------------------------------------------------------------=
