
     Program PWSCF v.6.7MaX starts on 19Jan2024 at 14:18: 6 

     This program is part of the open-source Quantum ESPRESSO suite
     for quantum simulation of materials; please cite
         "P. Giannozzi et al., J. Phys.:Condens. Matter 21 395502 (2009);
         "P. Giannozzi et al., J. Phys.:Condens. Matter 29 465901 (2017);
          URL http://www.quantum-espresso.org", 
     in publications or presentations arising from this work. More details at
     http://www.quantum-espresso.org/quote

     Parallel version (MPI), running on    32 processors

     MPI processes distributed on     1 nodes
     R & G space division:  proc/nbgrp/npool/nimage =      32
     Waiting for input...
     Reading input from standard input

     Current dimensions of program PWSCF are:
     Max number of different atomic species (ntypx) = 10
     Max number of k-points (npk) =  40000
     Max angular momentum in pseudopotentials (lmaxx) =  3
     Message from routine read_pp_mesh:
     mesh size missing, using the one in header

     Subspace diagonalization in iterative solution of the eigenvalue problem:
     a serial algorithm will be used

 
     Parallelization info
     --------------------
     sticks:   dense  smooth     PW     G-vecs:    dense   smooth      PW
     Min           9       9      3                 1189     1189     207
     Max          10      10      5                 1248     1248     225
     Sum         313     313    109                39303    39303    6967
 


     bravais-lattice index     =            4
     lattice parameter (alat)  =       4.8600  a.u.
     unit-cell volume          =     828.4345 (a.u.)^3
     number of atoms/cell      =            2
     number of atomic types    =            1
     number of electrons       =         8.00
     number of Kohn-Sham states=            8
     kinetic-energy cutoff     =      50.0000  Ry
     charge density cutoff     =     200.0000  Ry
     scf convergence threshold =      1.0E-08
     mixing beta               =       0.7000
     number of iterations used =            8  plain     mixing
     energy convergence thresh.=      1.0E-04
     force convergence thresh. =      1.0E-08
     press convergence thresh. =      1.0E-03
     Exchange-correlation= PBE
                           (   1   4   3   4   0   0   0)
     nstep                     =           50


     celldm(1)=   4.860000  celldm(2)=   0.000000  celldm(3)=   8.333333
     celldm(4)=   0.000000  celldm(5)=   0.000000  celldm(6)=   0.000000

     crystal axes: (cart. coord. in units of alat)
               a(1) = (   1.000000   0.000000   0.000000 )  
               a(2) = (  -0.500000   0.866025   0.000000 )  
               a(3) = (   0.000000   0.000000   8.333333 )  

     reciprocal axes: (cart. coord. in units 2 pi/alat)
               b(1) = (  1.000000  0.577350  0.000000 )  
               b(2) = (  0.000000  1.154701  0.000000 )  
               b(3) = (  0.000000  0.000000  0.120000 )  


     PseudoPot. # 1 for C  read from file:
     /home/yhkim/qe-6.7/pseudo/ONCV1/1.2/C_ONCV_PBE-1.2.upf
     MD5 check sum: 1a5f83a7b1f58d24996abe00ed223ac6
     Pseudo is Norm-conserving, Zval =  4.0
     Generated using ONCVPSP code by D. R. Hamann
     Using radial grid of  602 points,  4 beta functions with: 
                l(1) =   0
                l(2) =   0
                l(3) =   1
                l(4) =   1

     atomic species   valence    mass     pseudopotential
        C              4.00    12.01070     C ( 1.00)

     24 Sym. Ops., with inversion, found



   Cartesian axes

     site n.     atom                  positions (alat units)
         1           C   tau(   1) = (  -0.0000000   0.5773503   4.1666667  )
         2           C   tau(   2) = (   0.5000000   0.2886751   4.1666667  )

     number of k points=    27  Methfessel-Paxton smearing, width (Ry)=  0.0100
                       cart. coord. in units 2pi/alat
        k(    1) = (   0.0000000   0.0000000   0.0000000), wk =   0.0088889
        k(    2) = (   0.0000000   0.0769800   0.0000000), wk =   0.0533333
        k(    3) = (   0.0000000   0.1539601   0.0000000), wk =   0.0533333
        k(    4) = (   0.0000000   0.2309401   0.0000000), wk =   0.0533333
        k(    5) = (   0.0000000   0.3079201   0.0000000), wk =   0.0533333
        k(    6) = (   0.0000000   0.3849002   0.0000000), wk =   0.0533333
        k(    7) = (   0.0000000   0.4618802   0.0000000), wk =   0.0533333
        k(    8) = (   0.0000000   0.5388603   0.0000000), wk =   0.0533333
        k(    9) = (   0.0666667   0.1154701   0.0000000), wk =   0.0533333
        k(   10) = (   0.0666667   0.1924501   0.0000000), wk =   0.1066667
        k(   11) = (   0.0666667   0.2694301   0.0000000), wk =   0.1066667
        k(   12) = (   0.0666667   0.3464102   0.0000000), wk =   0.1066667
        k(   13) = (   0.0666667   0.4233902   0.0000000), wk =   0.1066667
        k(   14) = (   0.0666667   0.5003702   0.0000000), wk =   0.1066667
        k(   15) = (   0.0666667   0.5773503   0.0000000), wk =   0.0533333
        k(   16) = (   0.1333333   0.2309401   0.0000000), wk =   0.0533333
        k(   17) = (   0.1333333   0.3079201   0.0000000), wk =   0.1066667
        k(   18) = (   0.1333333   0.3849002   0.0000000), wk =   0.1066667
        k(   19) = (   0.1333333   0.4618802   0.0000000), wk =   0.1066667
        k(   20) = (   0.1333333   0.5388603   0.0000000), wk =   0.1066667
        k(   21) = (   0.2000000   0.3464102   0.0000000), wk =   0.0533333
        k(   22) = (   0.2000000   0.4233902   0.0000000), wk =   0.1066667
        k(   23) = (   0.2000000   0.5003702   0.0000000), wk =   0.1066667
        k(   24) = (   0.2000000   0.5773503   0.0000000), wk =   0.0533333
        k(   25) = (   0.2666667   0.4618802   0.0000000), wk =   0.0533333
        k(   26) = (   0.2666667   0.5388603   0.0000000), wk =   0.1066667
        k(   27) = (   0.3333333   0.5773503   0.0000000), wk =   0.0177778

     Dense  grid:    39303 G-vectors     FFT dimensions: (  24,  24, 192)

     Estimated max dynamical RAM per process >       2.03 MB

     Estimated total dynamical RAM >      65.08 MB
 ----2D----2D----2D----2D----2D----2D----2D----2D----2D----2D----2D----2D
  The code is running with the 2D cutoff
  Please refer to:
  Sohier, T., Calandra, M., & Mauri, F. (2017), 
  Density functional perturbation theory for gated two-dimensional heterostructu
 res:
  Theoretical developments and application to flexural phonons in graphene.
  Physical Review B, 96(7), 75448. https://doi.org/10.1103/PhysRevB.96.075448
 ----2D----2D----2D----2D----2D----2D----2D----2D----2D----2D----2D----2D

     Initial potential from superposition of free atoms

     starting charge    7.98607, renormalised to    8.00000

     negative rho (up, down):  1.200E-04 0.000E+00
     Starting wfcs are random

     total cpu time spent up to now is        0.1 secs

     Self-consistent Calculation

     iteration #  1     ecut=    50.00 Ry     beta= 0.70
     Davidson diagonalization with overlap
     ethr =  1.00E-02,  avg # of iterations = 12.0

     negative rho (up, down):  4.503E-08 0.000E+00

     total cpu time spent up to now is        0.6 secs

     total energy              =     -22.75210674 Ry
     estimated scf accuracy    <       0.11393335 Ry

     iteration #  2     ecut=    50.00 Ry     beta= 0.70
     Davidson diagonalization with overlap
     ethr =  1.42E-03,  avg # of iterations =  2.1

     total cpu time spent up to now is        0.7 secs

     total energy              =     -22.77149497 Ry
     estimated scf accuracy    <       0.00193658 Ry

     iteration #  3     ecut=    50.00 Ry     beta= 0.70
     Davidson diagonalization with overlap
     ethr =  2.42E-05,  avg # of iterations =  8.5

     total cpu time spent up to now is        1.0 secs

     total energy              =     -22.77454316 Ry
     estimated scf accuracy    <       0.00012566 Ry

     iteration #  4     ecut=    50.00 Ry     beta= 0.70
     Davidson diagonalization with overlap
     c_bands:  1 eigenvalues not converged
     ethr =  1.57E-06,  avg # of iterations =  5.8

     total cpu time spent up to now is        1.2 secs

     total energy              =     -22.77457929 Ry
     estimated scf accuracy    <       0.00000016 Ry

     iteration #  5     ecut=    50.00 Ry     beta= 0.70
     Davidson diagonalization with overlap
     ethr =  2.01E-09,  avg # of iterations =  4.8

     total cpu time spent up to now is        1.3 secs

     total energy              =     -22.77458212 Ry
     estimated scf accuracy    <       0.00000002 Ry

     iteration #  6     ecut=    50.00 Ry     beta= 0.70
     Davidson diagonalization with overlap
     ethr =  3.01E-10,  avg # of iterations =  2.0

     total cpu time spent up to now is        1.5 secs

     End of self-consistent calculation

          k = 0.0000 0.0000 0.0000 (  5035 PWs)   bands (ev):

   -23.1426 -11.3989  -7.6865  -7.6865  -0.9535  -0.1993   0.5978   0.9510

          k = 0.0000 0.0770 0.0000 (  5037 PWs)   bands (ev):

   -23.0454 -11.2855  -8.0962  -7.8807  -0.8223  -0.0667   0.7316   1.0839

          k = 0.0000 0.1540 0.0000 (  5009 PWs)   bands (ev):

   -22.7546 -10.9471  -9.1709  -8.3771  -0.4286   0.3305   1.1330   1.4823

          k = 0.0000 0.2309 0.0000 (  4983 PWs)   bands (ev):

   -22.2725 -10.6288 -10.3928  -8.9998   0.2268   0.9892   1.8013   2.1421

          k = 0.0000 0.3079 0.0000 (  4976 PWs)   bands (ev):

   -21.6039 -12.2483  -9.6363  -9.6105   1.1411   1.4273   1.9507   2.2706

          k = 0.0000 0.3849 0.0000 (  4942 PWs)   bands (ev):

   -20.7577 -13.8871 -10.1189  -8.7074  -0.1559   1.9408   2.3326   3.1097

          k = 0.0000 0.4619 0.0000 (  4922 PWs)   bands (ev):

   -19.7566 -15.4485 -10.4791  -7.6910  -1.6821   1.7204   3.7480   4.5421

          k = 0.0000 0.5389 0.0000 (  4882 PWs)   bands (ev):

   -18.7150 -16.7777 -10.6631  -6.8528  -2.7916   1.6005   5.4085   6.2024

          k = 0.0667 0.1155 0.0000 (  5023 PWs)   bands (ev):

   -22.8514 -11.0599  -8.7925  -8.2711  -0.5597   0.1982   0.9992   1.3497

          k = 0.0667 0.1925 0.0000 (  4978 PWs)   bands (ev):

   -22.4650 -10.6131  -9.9798  -8.9115  -0.0350   0.7267   1.5344   1.8799

          k = 0.0667 0.2694 0.0000 (  4970 PWs)   bands (ev):

   -21.8895 -11.4625  -9.9562  -9.5878   0.7506   1.5078   2.1250   2.3355

          k = 0.0667 0.3464 0.0000 (  4947 PWs)   bands (ev):

   -21.1316 -13.0607 -10.1814  -9.1093   0.5676   1.7920   2.5480   2.5802

          k = 0.0667 0.4234 0.0000 (  4937 PWs)   bands (ev):

   -20.2050 -14.6476 -10.6339  -8.1219  -0.9932   2.2618   3.1040   3.8834

          k = 0.0667 0.5004 0.0000 (  4896 PWs)   bands (ev):

   -19.1539 -16.1144 -10.9145  -7.1348  -2.3568   2.0880   4.6446   5.4234

          k = 0.0667 0.5774 0.0000 (  4900 PWs)   bands (ev):

   -18.3851 -17.0250 -11.0101  -6.6232  -3.0003   2.0267   6.3220   6.4908

          k = 0.1333 0.2309 0.0000 (  4969 PWs)   bands (ev):

   -21.9850 -11.0404 -10.0635  -9.7601   0.6202   1.3853   2.2036   2.3680

          k = 0.1333 0.3079 0.0000 (  4956 PWs)   bands (ev):

   -21.3200 -12.3495 -10.5759  -9.3128   1.0192   1.5350   2.3045   3.1385

          k = 0.1333 0.3849 0.0000 (  4940 PWs)   bands (ev):

   -20.4795 -13.8155 -11.1978  -8.3916  -0.4372   2.7032   3.4732   3.5814

          k = 0.1333 0.4619 0.0000 (  4916 PWs)   bands (ev):

   -19.4866 -15.2869 -11.6104  -7.3747  -1.8599   3.3428   4.1329   4.8695

          k = 0.1333 0.5389 0.0000 (  4918 PWs)   bands (ev):

   -18.4548 -16.5750 -11.8167  -6.5155  -2.9376   3.2235   5.7685   6.3734

          k = 0.2000 0.3464 0.0000 (  4965 PWs)   bands (ev):

   -20.5717 -13.3399 -11.6104  -8.4837  -0.2177   2.5758   3.3317   4.2073

          k = 0.2000 0.4234 0.0000 (  4941 PWs)   bands (ev):

   -19.6601 -14.5258 -12.3638  -7.5087  -1.5185   3.8631   4.5739   5.0852

          k = 0.2000 0.5004 0.0000 (  4929 PWs)   bands (ev):

   -18.6298 -15.8006 -12.7763  -6.5024  -2.7380   4.8804   5.3967   5.8530

          k = 0.2000 0.5774 0.0000 (  4934 PWs)   bands (ev):

   -17.8679 -16.6580 -12.9068  -5.9351  -3.3802   4.8222   6.4251   6.9037

          k = 0.2667 0.4619 0.0000 (  4944 PWs)   bands (ev):

   -18.7001 -15.3140 -13.3298  -6.5098  -2.6326   5.2453   5.6499   6.5358

          k = 0.2667 0.5389 0.0000 (  4943 PWs)   bands (ev):

   -17.6966 -16.2485 -13.8195  -5.5541  -3.6410   6.0033   6.4548   6.7954

          k = 0.3333 0.5774 0.0000 (  4926 PWs)   bands (ev):

   -16.8385 -16.8385 -14.2822  -4.5833  -4.5833   5.8563   7.2991   7.2991

     the Fermi energy is    -4.5833 ev

!    total energy              =     -22.77458213 Ry
     estimated scf accuracy    <          4.4E-10 Ry
     smearing contrib. (-TS)   =      -0.00005015 Ry
     internal energy E=F+TS    =     -22.77453198 Ry

     The total energy is F=E-TS. E is the sum of the following terms:
     one-electron contribution =    -355.25838727 Ry
     hartree contribution      =     178.17078300 Ry
     xc contribution           =      -6.83489176 Ry
     ewald contribution        =     161.14796405 Ry

     convergence has been achieved in   6 iterations

     Forces acting on atoms (cartesian axes, Ry/au):

     atom    1 type  1   force =     0.00000000    0.00000000    0.00000000
     atom    2 type  1   force =     0.00000000    0.00000000    0.00000000

     Total force =     0.000000     Total SCF correction =     0.000000


     Computing stress (Cartesian axis) and pressure

          total   stress  (Ry/bohr**3)                   (kbar)     P=      -58.38
  -0.00054773  -0.00000000   0.00000000          -80.57       -0.00        0.00
  -0.00000000  -0.00054773   0.00000000           -0.00      -80.57        0.00
   0.00000000  -0.00000000  -0.00009515            0.00       -0.00      -14.00


     BFGS Geometry Optimization
     Energy error            =      0.0E+00
     Gradient error          =      0.0E+00
     Cell gradient error     =      5.5E-04


     number of scf cycles    =   1
     number of bfgs steps    =   0

     enthalpy new            =     -22.7745821288 Ry

     new trust radius        =       0.0788248027 bohr
     new conv_thr            =       0.0000000100 Ry

     new unit-cell volume =    805.90209 a.u.^3 (   119.42237 Ang^3 )
     density =      0.33401 g/cm^3

CELL_PARAMETERS (alat=  4.86000000)
   0.986306836  -0.000000000   0.000000000
  -0.493153418   0.854166776   0.000000000
   0.000000000   0.000000000   8.333333333

ATOMIC_POSITIONS (crystal)
C             0.3333333333        0.6666666667        0.5000000000
C             0.6666666667        0.3333333333        0.5000000000



     Writing output data file ./work/LiC486.save/
     NEW-OLD atomic charge density approx. for the potential

     negative rho (up, down):  6.170E-06 0.000E+00
     extrapolated charge    7.77672, renormalised to    8.00000

     total cpu time spent up to now is        1.5 secs

     Self-consistent Calculation

     iteration #  1     ecut=    50.00 Ry     beta= 0.70
     Davidson diagonalization with overlap
     c_bands:  2 eigenvalues not converged
     c_bands:  2 eigenvalues not converged
     c_bands:  1 eigenvalues not converged
     c_bands:  1 eigenvalues not converged
     c_bands:  1 eigenvalues not converged
     c_bands:  3 eigenvalues not converged
     c_bands:  1 eigenvalues not converged
     c_bands:  1 eigenvalues not converged
     c_bands:  2 eigenvalues not converged
     c_bands:  2 eigenvalues not converged
     c_bands:  1 eigenvalues not converged
     c_bands:  1 eigenvalues not converged
     c_bands:  2 eigenvalues not converged
     c_bands:  1 eigenvalues not converged
     c_bands:  1 eigenvalues not converged
     ethr =  1.00E-06,  avg # of iterations = 17.9

     negative rho (up, down):  5.332E-07 0.000E+00

     total cpu time spent up to now is        2.0 secs

     total energy              =     -22.76436427 Ry
     estimated scf accuracy    <       0.01125428 Ry

     iteration #  2     ecut=    50.00 Ry     beta= 0.70
     Davidson diagonalization with overlap
     ethr =  1.41E-04,  avg # of iterations = 10.6

     negative rho (up, down):  1.042E-07 0.000E+00

     total cpu time spent up to now is        2.3 secs

     total energy              =     -22.78596678 Ry
     estimated scf accuracy    <       0.01008461 Ry

     iteration #  3     ecut=    50.00 Ry     beta= 0.70
     Davidson diagonalization with overlap
     ethr =  1.26E-04,  avg # of iterations =  1.0

     total cpu time spent up to now is        2.4 secs

     total energy              =     -22.78513008 Ry
     estimated scf accuracy    <       0.00221172 Ry

     iteration #  4     ecut=    50.00 Ry     beta= 0.70
     Davidson diagonalization with overlap
     ethr =  2.76E-05,  avg # of iterations =  2.8

     total cpu time spent up to now is        2.6 secs

     total energy              =     -22.78543090 Ry
     estimated scf accuracy    <       0.00003382 Ry

     iteration #  5     ecut=    50.00 Ry     beta= 0.70
     Davidson diagonalization with overlap
     c_bands:  1 eigenvalues not converged
     c_bands:  1 eigenvalues not converged
     c_bands:  1 eigenvalues not converged
     ethr =  4.23E-07,  avg # of iterations =  7.1

     total cpu time spent up to now is        2.8 secs

     total energy              =     -22.78544251 Ry
     estimated scf accuracy    <       0.00001552 Ry

     iteration #  6     ecut=    50.00 Ry     beta= 0.70
     Davidson diagonalization with overlap
     ethr =  1.94E-07,  avg # of iterations =  1.3

     total cpu time spent up to now is        2.9 secs

     total energy              =     -22.78543036 Ry
     estimated scf accuracy    <       0.00002314 Ry

     iteration #  7     ecut=    50.00 Ry     beta= 0.70
     Davidson diagonalization with overlap
     ethr =  1.94E-07,  avg # of iterations =  2.8

     total cpu time spent up to now is        3.0 secs

     total energy              =     -22.78543283 Ry
     estimated scf accuracy    <       0.00000349 Ry

     iteration #  8     ecut=    50.00 Ry     beta= 0.70
     Davidson diagonalization with overlap
     ethr =  4.37E-08,  avg # of iterations =  1.0

     total cpu time spent up to now is        3.1 secs

     total energy              =     -22.78543272 Ry
     estimated scf accuracy    <       0.00000177 Ry

     iteration #  9     ecut=    50.00 Ry     beta= 0.70
     Davidson diagonalization with overlap
     ethr =  2.22E-08,  avg # of iterations =  1.6

     total cpu time spent up to now is        3.2 secs

     total energy              =     -22.78543285 Ry
     estimated scf accuracy    <       0.00000002 Ry

     iteration # 10     ecut=    50.00 Ry     beta= 0.70
     Davidson diagonalization with overlap
     ethr =  1.88E-10,  avg # of iterations =  3.4

     total cpu time spent up to now is        3.4 secs

     End of self-consistent calculation

          k = 0.0000 0.0000 0.0000 (  5035 PWs)   bands (ev):

   -23.3519 -11.5504  -7.5822  -7.5822  -0.9621  -0.1995   0.5966   0.9499

          k = 0.0000 0.0780 0.0000 (  5037 PWs)   bands (ev):

   -23.2522 -11.4331  -7.9958  -7.7850  -0.8272  -0.0631   0.7341   1.0867

          k = 0.0000 0.1561 0.0000 (  5009 PWs)   bands (ev):

   -22.9540 -11.0828  -9.0851  -8.3025  -0.4227   0.3455   1.1467   1.4965

          k = 0.0000 0.2341 0.0000 (  4983 PWs)   bands (ev):

   -22.4595 -10.5689 -10.5089  -8.9507   0.2507   1.0236   1.8339   2.1762

          k = 0.0000 0.3122 0.0000 (  4976 PWs)   bands (ev):

   -21.7733 -12.2225  -9.7250  -9.5849   1.1905   1.7284   2.0532   2.7117

          k = 0.0000 0.3902 0.0000 (  4942 PWs)   bands (ev):

   -20.9038 -13.9000 -10.1125  -8.7614   0.1079   2.3292   2.5062   3.2078

          k = 0.0000 0.4683 0.0000 (  4922 PWs)   bands (ev):

   -19.8716 -15.5043 -10.4860  -7.7045  -1.4891   2.2053   3.8730   4.6827

          k = 0.0000 0.5463 0.0000 (  4882 PWs)   bands (ev):

   -18.7800 -16.8900 -10.6770  -6.8291  -2.6519   2.0896   5.5805   6.3965

          k = 0.0676 0.1171 0.0000 (  5023 PWs)   bands (ev):

   -23.0533 -11.1996  -8.6993  -8.1925  -0.5575   0.2094   1.0093   1.3599

          k = 0.0676 0.1951 0.0000 (  4978 PWs)   bands (ev):

   -22.6569 -10.7371  -9.9039  -8.8590  -0.0183   0.7533   1.5594   1.9056

          k = 0.0676 0.2732 0.0000 (  4970 PWs)   bands (ev):

   -22.0665 -11.4159 -10.0566  -9.5603   0.7890   1.5603   2.3835   2.4893

          k = 0.0676 0.3512 0.0000 (  4947 PWs)   bands (ev):

   -21.2883 -13.0505 -10.1745  -9.1787   0.8682   1.8603   2.6632   3.0254

          k = 0.0676 0.4293 0.0000 (  4937 PWs)   bands (ev):

   -20.3350 -14.6780 -10.6424  -8.1533  -0.7648   2.7440   3.2184   4.0043

          k = 0.0676 0.5073 0.0000 (  4896 PWs)   bands (ev):

   -19.2464 -16.1918 -10.9325  -7.1251  -2.1923   2.5838   4.7946   5.5924

          k = 0.0676 0.5854 0.0000 (  4900 PWs)   bands (ev):

   -18.4223 -17.1608 -11.0313  -6.5894  -2.8676   2.5245   6.5265   6.6915

          k = 0.1352 0.2341 0.0000 (  4969 PWs)   bands (ev):

   -22.1646 -10.9758 -10.1679  -9.7424   0.6551   1.4311   2.2472   2.5863

          k = 0.1352 0.3122 0.0000 (  4956 PWs)   bands (ev):

   -21.4819 -12.3100 -10.5861  -9.3898   1.3491   1.5954   2.3780   3.2089

          k = 0.1352 0.3902 0.0000 (  4940 PWs)   bands (ev):

   -20.6182 -13.8137 -11.2244  -8.4341  -0.1749   2.7970   3.5817   4.0863

          k = 0.1352 0.4683 0.0000 (  4916 PWs)   bands (ev):

   -19.5946 -15.3284 -11.6470  -7.3769  -1.6628   3.8523   4.2767   5.0219

          k = 0.1352 0.5463 0.0000 (  4918 PWs)   bands (ev):

   -18.5147 -16.6713 -11.8583  -6.4800  -2.7916   3.7450   5.9529   6.5826

          k = 0.2028 0.3512 0.0000 (  4965 PWs)   bands (ev):

   -20.7133 -13.3076 -11.6628  -8.5298   0.0602   2.6655   3.4355   4.3079

          k = 0.2028 0.4293 0.0000 (  4941 PWs)   bands (ev):

   -19.7752 -14.5222 -12.4379  -7.5174  -1.2963   3.9902   4.7171   5.6050

          k = 0.2028 0.5073 0.0000 (  4929 PWs)   bands (ev):

   -18.7091 -15.8429 -12.8558  -6.4699  -2.5693   5.4007   5.6061   6.0425

          k = 0.2028 0.5854 0.0000 (  4934 PWs)   bands (ev):

   -17.8982 -16.7534 -12.9873  -5.8771  -3.2415   5.3789   6.6358   7.1493

          k = 0.2704 0.4683 0.0000 (  4944 PWs)   bands (ev):

   -18.7851 -15.3095 -13.4518  -6.4791  -2.4526   5.4158   5.8301   7.1215

          k = 0.2704 0.5463 0.0000 (  4943 PWs)   bands (ev):

   -17.7407 -16.2761 -13.9592  -5.4842  -3.5013   6.1839   6.9077   7.1658

          k = 0.3380 0.5854 0.0000 (  4926 PWs)   bands (ev):

   -16.8549 -16.8549 -14.4645  -4.4767  -4.4767   6.0225   7.7593   7.7593

     the Fermi energy is    -4.4767 ev

!    total energy              =     -22.78543286 Ry
     estimated scf accuracy    <          9.4E-09 Ry
     smearing contrib. (-TS)   =      -0.00005015 Ry
     internal energy E=F+TS    =     -22.78538271 Ry

     The total energy is F=E-TS. E is the sum of the following terms:
     one-electron contribution =    -365.29340377 Ry
     hartree contribution      =     183.21223961 Ry
     xc contribution           =      -6.89120643 Ry
     ewald contribution        =     166.18698788 Ry

     convergence has been achieved in  10 iterations

     Forces acting on atoms (cartesian axes, Ry/au):

     atom    1 type  1   force =     0.00000000    0.00000000    0.00000000
     atom    2 type  1   force =     0.00000000    0.00000000    0.00000000

     Total force =     0.000000     Total SCF correction =     0.000000


     Computing stress (Cartesian axis) and pressure

          total   stress  (Ry/bohr**3)                   (kbar)     P=      -45.01
  -0.00041190  -0.00000000   0.00000000          -60.59       -0.00        0.00
   0.00000000  -0.00041190  -0.00000000            0.00      -60.59       -0.00
   0.00000000   0.00000000  -0.00009403            0.00        0.00      -13.83

     Energy error            =      1.1E-02
     Gradient error          =      0.0E+00
     Cell gradient error     =      4.1E-04


     number of scf cycles    =   2
     number of bfgs steps    =   1

     enthalpy old            =     -22.7745821288 Ry
     enthalpy new            =     -22.7854328648 Ry

     CASE: enthalpy_new < enthalpy_old

     new trust radius        =       0.0867072829 bohr
     new conv_thr            =            1.0E-10 Ry

     new unit-cell volume =    781.47522 a.u.^3 (   115.80268 Ang^3 )
     density =      0.34445 g/cm^3

CELL_PARAMETERS (alat=  4.86000000)
   0.971244356   0.000000000   0.000000000
  -0.485622178   0.841122286   0.000000000
   0.000000000   0.000000000   8.333333333

ATOMIC_POSITIONS (crystal)
C             0.3333333333        0.6666666667        0.5000000000
C             0.6666666667        0.3333333333        0.5000000000



     Writing output data file ./work/LiC486.save/
     NEW-OLD atomic charge density approx. for the potential

     negative rho (up, down):  5.101E-06 0.000E+00
     extrapolated charge    7.75038, renormalised to    8.00000

     total cpu time spent up to now is        3.5 secs

     Self-consistent Calculation

     iteration #  1     ecut=    50.00 Ry     beta= 0.70
     Davidson diagonalization with overlap
     c_bands:  3 eigenvalues not converged
     c_bands:  3 eigenvalues not converged
     c_bands:  1 eigenvalues not converged
     c_bands:  1 eigenvalues not converged
     c_bands:  4 eigenvalues not converged
     c_bands:  3 eigenvalues not converged
     c_bands:  1 eigenvalues not converged
     c_bands:  1 eigenvalues not converged
     c_bands:  1 eigenvalues not converged
     c_bands:  3 eigenvalues not converged
     c_bands:  2 eigenvalues not converged
     c_bands:  1 eigenvalues not converged
     c_bands:  1 eigenvalues not converged
     c_bands:  2 eigenvalues not converged
     c_bands:  1 eigenvalues not converged
     c_bands:  2 eigenvalues not converged
     c_bands:  1 eigenvalues not converged
     ethr =  1.00E-06,  avg # of iterations = 18.2

     negative rho (up, down):  3.855E-07 0.000E+00

     total cpu time spent up to now is        4.0 secs

     total energy              =     -22.76715454 Ry
     estimated scf accuracy    <       0.01394088 Ry

     iteration #  2     ecut=    50.00 Ry     beta= 0.70
     Davidson diagonalization with overlap
     c_bands:  1 eigenvalues not converged
     ethr =  1.74E-04,  avg # of iterations = 10.3

     negative rho (up, down):  7.045E-08 0.000E+00

     total cpu time spent up to now is        4.2 secs

     total energy              =     -22.79409469 Ry
     estimated scf accuracy    <       0.01267869 Ry

     iteration #  3     ecut=    50.00 Ry     beta= 0.70
     Davidson diagonalization with overlap
     ethr =  1.58E-04,  avg # of iterations =  1.0

     total cpu time spent up to now is        4.3 secs

     total energy              =     -22.79306120 Ry
     estimated scf accuracy    <       0.00277014 Ry

     iteration #  4     ecut=    50.00 Ry     beta= 0.70
     Davidson diagonalization with overlap
     ethr =  3.46E-05,  avg # of iterations =  3.0

     total cpu time spent up to now is        4.5 secs

     total energy              =     -22.79343070 Ry
     estimated scf accuracy    <       0.00004584 Ry

     iteration #  5     ecut=    50.00 Ry     beta= 0.70
     Davidson diagonalization with overlap
     ethr =  5.73E-07,  avg # of iterations =  5.8

     total cpu time spent up to now is        4.7 secs

     total energy              =     -22.79344804 Ry
     estimated scf accuracy    <       0.00001336 Ry

     iteration #  6     ecut=    50.00 Ry     beta= 0.70
     Davidson diagonalization with overlap
     ethr =  1.67E-07,  avg # of iterations =  1.1

     total cpu time spent up to now is        4.8 secs

     total energy              =     -22.79343411 Ry
     estimated scf accuracy    <       0.00002602 Ry

     iteration #  7     ecut=    50.00 Ry     beta= 0.70
     Davidson diagonalization with overlap
     ethr =  1.67E-07,  avg # of iterations =  2.5

     total cpu time spent up to now is        4.9 secs

     total energy              =     -22.79343734 Ry
     estimated scf accuracy    <       0.00000196 Ry

     iteration #  8     ecut=    50.00 Ry     beta= 0.70
     Davidson diagonalization with overlap
     ethr =  2.45E-08,  avg # of iterations =  1.0

     total cpu time spent up to now is        5.0 secs

     total energy              =     -22.79343724 Ry
     estimated scf accuracy    <       0.00000118 Ry

     iteration #  9     ecut=    50.00 Ry     beta= 0.70
     Davidson diagonalization with overlap
     ethr =  1.47E-08,  avg # of iterations =  2.0

     total cpu time spent up to now is        5.1 secs

     total energy              =     -22.79343732 Ry
     estimated scf accuracy    <       0.00000008 Ry

     iteration # 10     ecut=    50.00 Ry     beta= 0.70
     Davidson diagonalization with overlap
     ethr =  1.05E-09,  avg # of iterations =  2.4

     total cpu time spent up to now is        5.3 secs

     total energy              =     -22.79343735 Ry
     estimated scf accuracy    <       0.00000001 Ry

     iteration # 11     ecut=    50.00 Ry     beta= 0.70
     Davidson diagonalization with overlap
     ethr =  1.37E-10,  avg # of iterations =  1.5

     total cpu time spent up to now is        5.4 secs

     total energy              =     -22.79343735 Ry
     estimated scf accuracy    <          2.7E-09 Ry

     iteration # 12     ecut=    50.00 Ry     beta= 0.70
     Davidson diagonalization with overlap
     ethr =  3.37E-11,  avg # of iterations =  2.0

     total cpu time spent up to now is        5.5 secs

     total energy              =     -22.79343735 Ry
     estimated scf accuracy    <          1.3E-09 Ry

     iteration # 13     ecut=    50.00 Ry     beta= 0.70
     Davidson diagonalization with overlap
     ethr =  1.68E-11,  avg # of iterations =  1.0

     total cpu time spent up to now is        5.6 secs

     total energy              =     -22.79343735 Ry
     estimated scf accuracy    <          1.5E-10 Ry

     iteration # 14     ecut=    50.00 Ry     beta= 0.70
     Davidson diagonalization with overlap
     ethr =  1.83E-12,  avg # of iterations =  2.3

     total cpu time spent up to now is        5.8 secs

     End of self-consistent calculation

          k = 0.0000 0.0000 0.0000 (  5035 PWs)   bands (ev):

   -23.5847 -11.7221  -7.4531  -7.4531  -0.9707  -0.1989   0.5960   0.9494

          k =-0.0000 0.0793 0.0000 (  5037 PWs)   bands (ev):

   -23.4823 -11.6003  -7.8721  -7.6661  -0.8317  -0.0582   0.7378   1.0905

          k =-0.0000 0.1585 0.0000 (  5009 PWs)   bands (ev):

   -23.1757 -11.2365  -8.9795  -8.2082  -0.4148   0.3636   1.1632   1.5135

          k =-0.0000 0.2378 0.0000 (  4983 PWs)   bands (ev):

   -22.6672 -10.6400 -10.4941  -8.8857   0.2793   1.0639   1.8720   2.2157

          k =-0.0000 0.3170 0.0000 (  4976 PWs)   bands (ev):

   -21.9612 -12.1871  -9.8246  -9.5473   1.2485   1.9596   2.2866   2.8588

          k =-0.0000 0.3963 0.0000 (  4942 PWs)   bands (ev):

   -21.0655 -13.9087 -10.0971  -8.8212   0.4118   2.4765   3.0045   3.3212

          k =-0.0000 0.4756 0.0000 (  4922 PWs)   bands (ev):

   -19.9984 -15.5614 -10.4859  -7.7176  -1.2666   2.7623   4.0198   4.8449

          k =-0.0000 0.5548 0.0000 (  4882 PWs)   bands (ev):

   -18.8494 -17.0118 -10.6848  -6.7990  -2.4911   2.6542   5.7795   6.6197

          k = 0.0686 0.1189 0.0000 (  5023 PWs)   bands (ev):

   -23.2778 -11.3577  -8.5850  -8.0934  -0.5537   0.2231   1.0215   1.3726

          k = 0.0686 0.1981 0.0000 (  4978 PWs)   bands (ev):

   -22.8702 -10.8771  -9.8105  -8.7903   0.0021   0.7846   1.5888   1.9359

          k = 0.0686 0.2774 0.0000 (  4970 PWs)   bands (ev):

   -22.2629 -11.3566 -10.1697  -9.5201   0.8344   1.6197   2.4391   2.7545

          k = 0.0686 0.3567 0.0000 (  4947 PWs)   bands (ev):

   -21.4618 -13.0332 -10.1580  -9.2560   1.2144   1.9396   2.7603   3.5196

          k = 0.0686 0.4359 0.0000 (  4937 PWs)   bands (ev):

   -20.4786 -14.7067 -10.6436  -8.1869  -0.5013   3.2231   3.4259   4.1438

          k = 0.0686 0.5152 0.0000 (  4896 PWs)   bands (ev):

   -19.3477 -16.2735 -10.9447  -7.1113  -2.0027   3.1548   4.9690   5.7871

          k = 0.0686 0.5944 0.0000 (  4900 PWs)   bands (ev):

   -18.4560 -17.3140 -11.0471  -6.5476  -2.7150   3.0989   6.7623   6.9233

          k = 0.1373 0.2378 0.0000 (  4969 PWs)   bands (ev):

   -22.3638 -10.8958 -10.2854  -9.7136   0.6965   1.4844   2.2981   2.6386

          k = 0.1373 0.3170 0.0000 (  4956 PWs)   bands (ev):

   -21.6613 -12.2592 -10.5890  -9.4760   1.6661   1.7299   2.4641   3.2903

          k = 0.1373 0.3963 0.0000 (  4940 PWs)   bands (ev):

   -20.7715 -13.8064 -11.2455  -8.4805   0.1286   2.9058   3.7069   4.5485

          k = 0.1373 0.4756 0.0000 (  4916 PWs)   bands (ev):

   -19.7134 -15.3704 -11.6793  -7.3768  -1.4349   4.3444   4.5354   5.1977

          k = 0.1373 0.5548 0.0000 (  4918 PWs)   bands (ev):

   -18.5783 -16.7762 -11.8962  -6.4363  -2.6229   4.3446   6.1661   6.8238

          k = 0.2059 0.3567 0.0000 (  4965 PWs)   bands (ev):

   -20.8698 -13.2644 -11.7145  -8.5805   0.3822   2.7699   3.5553   4.4239

          k = 0.2059 0.4359 0.0000 (  4941 PWs)   bands (ev):

   -19.9019 -14.5130 -12.5129  -7.5249  -1.0384   4.1373   4.8824   5.8333

          k = 0.2059 0.5152 0.0000 (  4929 PWs)   bands (ev):

   -18.7952 -15.8870 -12.9357  -6.4300  -2.3733   5.7298   6.1117   6.2618

          k = 0.2059 0.5944 0.0000 (  4934 PWs)   bands (ev):

   -17.9243 -16.8626 -13.0680  -5.8075  -3.0806   6.0155   6.8811   7.4270

          k = 0.2746 0.4756 0.0000 (  4944 PWs)   bands (ev):

   -18.8775 -15.2975 -13.5830  -6.4414  -2.2429   5.6119   6.0388   7.3327

          k = 0.2746 0.5548 0.0000 (  4943 PWs)   bands (ev):

   -17.7856 -16.3035 -14.1088  -5.4010  -3.3383   6.3940   7.2286   7.7669

          k = 0.3432 0.5944 0.0000 (  4926 PWs)   bands (ev):

   -16.8660 -16.8660 -14.6685  -4.3514  -4.3514   6.2159   8.2448   8.2448

     the Fermi energy is    -4.3514 ev

!    total energy              =     -22.79343735 Ry
     estimated scf accuracy    <          3.9E-13 Ry
     smearing contrib. (-TS)   =      -0.00005015 Ry
     internal energy E=F+TS    =     -22.79338720 Ry

     The total energy is F=E-TS. E is the sum of the following terms:
     one-electron contribution =    -376.83696764 Ry
     hartree contribution      =     189.01228529 Ry
     xc contribution           =      -6.95539054 Ry
     ewald contribution        =     171.98668569 Ry

     convergence has been achieved in  14 iterations

     Forces acting on atoms (cartesian axes, Ry/au):

     atom    1 type  1   force =     0.00000000    0.00000000    0.00000000
     atom    2 type  1   force =    -0.00000000   -0.00000000    0.00000000

     Total force =     0.000000     Total SCF correction =     0.000000


     Computing stress (Cartesian axis) and pressure

          total   stress  (Ry/bohr**3)                   (kbar)     P=      -27.98
  -0.00023871   0.00000000   0.00000000          -35.12        0.00        0.00
   0.00000000  -0.00023871   0.00000000            0.00      -35.12        0.00
   0.00000000   0.00000000  -0.00009309            0.00        0.00      -13.69

     Energy error            =      8.0E-03
     Gradient error          =      1.8E-26
     Cell gradient error     =      2.4E-04


     number of scf cycles    =   3
     number of bfgs steps    =   2

     enthalpy old            =     -22.7854328648 Ry
     enthalpy new            =     -22.7934373481 Ry

     CASE: enthalpy_new < enthalpy_old

     new trust radius        =       0.1152641508 bohr
     new conv_thr            =            1.0E-10 Ry

     new unit-cell volume =    749.58541 a.u.^3 (   111.07710 Ang^3 )
     density =      0.35911 g/cm^3

CELL_PARAMETERS (alat=  4.86000000)
   0.951221078   0.000000000   0.000000000
  -0.475610539   0.823781618   0.000000000
   0.000000000   0.000000000   8.333333333

ATOMIC_POSITIONS (crystal)
C             0.3333333333        0.6666666667        0.5000000000
C             0.6666666667        0.3333333333        0.5000000000



     Writing output data file ./work/LiC486.save/
     NEW-OLD atomic charge density approx. for the potential

     negative rho (up, down):  8.337E-06 0.000E+00
     extrapolated charge    7.66025, renormalised to    8.00000

     total cpu time spent up to now is        5.9 secs

     Self-consistent Calculation

     iteration #  1     ecut=    50.00 Ry     beta= 0.70
     Davidson diagonalization with overlap
     c_bands:  3 eigenvalues not converged
     c_bands:  1 eigenvalues not converged
     c_bands:  1 eigenvalues not converged
     c_bands:  2 eigenvalues not converged
     c_bands:  1 eigenvalues not converged
     c_bands:  1 eigenvalues not converged
     c_bands:  3 eigenvalues not converged
     c_bands:  3 eigenvalues not converged
     c_bands:  2 eigenvalues not converged
     c_bands:  1 eigenvalues not converged
     c_bands:  1 eigenvalues not converged
     c_bands:  1 eigenvalues not converged
     c_bands:  1 eigenvalues not converged
     c_bands:  3 eigenvalues not converged
     c_bands:  2 eigenvalues not converged
     c_bands:  1 eigenvalues not converged
     c_bands:  1 eigenvalues not converged
     c_bands:  2 eigenvalues not converged
     c_bands:  1 eigenvalues not converged
     c_bands:  2 eigenvalues not converged
     c_bands:  1 eigenvalues not converged
     ethr =  1.00E-06,  avg # of iterations = 19.3

     negative rho (up, down):  1.034E-06 0.000E+00

     total cpu time spent up to now is        6.4 secs

     total energy              =     -22.75069058 Ry
     estimated scf accuracy    <       0.02431084 Ry

     iteration #  2     ecut=    50.00 Ry     beta= 0.70
     Davidson diagonalization with overlap
     ethr =  3.04E-04,  avg # of iterations = 10.2

     negative rho (up, down):  2.774E-07 0.000E+00

     total cpu time spent up to now is        6.7 secs

     total energy              =     -22.79794239 Ry
     estimated scf accuracy    <       0.02242083 Ry

     iteration #  3     ecut=    50.00 Ry     beta= 0.70
     Davidson diagonalization with overlap
     ethr =  2.80E-04,  avg # of iterations =  1.1

     total cpu time spent up to now is        6.8 secs

     total energy              =     -22.79634689 Ry
     estimated scf accuracy    <       0.00485002 Ry

     iteration #  4     ecut=    50.00 Ry     beta= 0.70
     Davidson diagonalization with overlap
     ethr =  6.06E-05,  avg # of iterations =  3.3

     total cpu time spent up to now is        6.9 secs

     total energy              =     -22.79679539 Ry
     estimated scf accuracy    <       0.00021008 Ry

     iteration #  5     ecut=    50.00 Ry     beta= 0.70
     Davidson diagonalization with overlap
     ethr =  2.63E-06,  avg # of iterations =  6.6

     total cpu time spent up to now is        7.1 secs

     total energy              =     -22.79685212 Ry
     estimated scf accuracy    <       0.00000826 Ry

     iteration #  6     ecut=    50.00 Ry     beta= 0.70
     Davidson diagonalization with overlap
     ethr =  1.03E-07,  avg # of iterations =  2.0

     total cpu time spent up to now is        7.3 secs

     total energy              =     -22.79683226 Ry
     estimated scf accuracy    <       0.00003607 Ry

     iteration #  7     ecut=    50.00 Ry     beta= 0.70
     Davidson diagonalization with overlap
     ethr =  1.03E-07,  avg # of iterations =  2.0

     total cpu time spent up to now is        7.4 secs

     total energy              =     -22.79683898 Ry
     estimated scf accuracy    <       0.00000081 Ry

     iteration #  8     ecut=    50.00 Ry     beta= 0.70
     Davidson diagonalization with overlap
     ethr =  1.01E-08,  avg # of iterations =  1.1

     total cpu time spent up to now is        7.5 secs

     total energy              =     -22.79683897 Ry
     estimated scf accuracy    <       0.00000041 Ry

     iteration #  9     ecut=    50.00 Ry     beta= 0.70
     Davidson diagonalization with overlap
     ethr =  5.11E-09,  avg # of iterations =  1.1

     total cpu time spent up to now is        7.6 secs

     total energy              =     -22.79683897 Ry
     estimated scf accuracy    <       0.00000003 Ry

     iteration # 10     ecut=    50.00 Ry     beta= 0.70
     Davidson diagonalization with overlap
     ethr =  4.03E-10,  avg # of iterations =  2.4

     total cpu time spent up to now is        7.8 secs

     total energy              =     -22.79683898 Ry
     estimated scf accuracy    <          9.4E-10 Ry

     iteration # 11     ecut=    50.00 Ry     beta= 0.70
     Davidson diagonalization with overlap
     ethr =  1.18E-11,  avg # of iterations =  2.6

     total cpu time spent up to now is        7.9 secs

     total energy              =     -22.79683898 Ry
     estimated scf accuracy    <          6.4E-10 Ry

     iteration # 12     ecut=    50.00 Ry     beta= 0.70
     Davidson diagonalization with overlap
     ethr =  8.00E-12,  avg # of iterations =  1.9

     total cpu time spent up to now is        8.0 secs

     total energy              =     -22.79683898 Ry
     estimated scf accuracy    <          1.5E-10 Ry

     iteration # 13     ecut=    50.00 Ry     beta= 0.70
     Davidson diagonalization with overlap
     ethr =  1.91E-12,  avg # of iterations =  1.1

     total cpu time spent up to now is        8.1 secs

     End of self-consistent calculation

          k = 0.0000 0.0000 0.0000 (  5035 PWs)   bands (ev):

   -23.9019 -11.9619  -7.2609  -7.2609  -0.9821  -0.1984   0.5951   0.9484

          k =-0.0000 0.0809 0.0000 (  5037 PWs)   bands (ev):

   -23.7956 -11.8338  -7.6886  -7.4885  -0.8374  -0.0515   0.7429   1.0957

          k =-0.0000 0.1619 0.0000 (  5009 PWs)   bands (ev):

   -23.4776 -11.4510  -8.8234  -8.0654  -0.4031   0.3888   1.1865   1.5372

          k =-0.0000 0.2428 0.0000 (  4983 PWs)   bands (ev):

   -22.9499 -10.8229 -10.3826  -8.7847   0.3202   1.1201   1.9256   2.2707

          k =-0.0000 0.3237 0.0000 (  4976 PWs)   bands (ev):

   -22.2168 -12.1310  -9.9633  -9.4849   1.3304   2.1096   2.7787   2.9583

          k =-0.0000 0.4046 0.0000 (  4942 PWs)   bands (ev):

   -21.2855 -13.9138 -10.0659  -8.9040   0.8364   2.6192   3.4808   3.7585

          k =-0.0000 0.4856 0.0000 (  4922 PWs)   bands (ev):

   -20.1711 -15.6329 -10.4763  -7.7348  -0.9564   3.5332   4.2358   5.0719

          k =-0.0000 0.5665 0.0000 (  4882 PWs)   bands (ev):

   -18.9433 -17.1724 -10.6863  -6.7549  -2.2683   3.4470   6.0599   6.9315

          k = 0.0701 0.1214 0.0000 (  5023 PWs)   bands (ev):

   -23.5835 -11.5786  -8.4161  -7.9440  -0.5478   0.2421   1.0387   1.3901

          k = 0.0701 0.2023 0.0000 (  4978 PWs)   bands (ev):

   -23.1606 -11.0727  -9.6727  -8.6836   0.0313   0.8283   1.6302   1.9781

          k = 0.0701 0.2832 0.0000 (  4970 PWs)   bands (ev):

   -22.5302 -11.2677 -10.3274  -9.4536   0.8988   1.7016   2.5170   2.8509

          k = 0.0701 0.3642 0.0000 (  4947 PWs)   bands (ev):

   -21.6980 -13.0028 -10.1249  -9.3635   1.6969   2.0513   2.8988   3.6950

          k = 0.0701 0.4451 0.0000 (  4937 PWs)   bands (ev):

   -20.6740 -14.7399 -10.6353  -8.2331  -0.1328   3.4716   4.1361   4.3393

          k = 0.0701 0.5260 0.0000 (  4896 PWs)   bands (ev):

   -19.4860 -16.3789 -10.9517  -7.0905  -1.7386   3.9526   5.2170   6.0595

          k = 0.0701 0.6070 0.0000 (  4900 PWs)   bands (ev):

   -18.4910 -17.5278 -11.0592  -6.4867  -2.5037   3.9050   7.0932   7.2490

          k = 0.1402 0.2428 0.0000 (  4969 PWs)   bands (ev):

   -22.6350 -10.7772 -10.4494  -9.6636   0.7551   1.5589   2.3698   2.7116

          k = 0.1402 0.3237 0.0000 (  4956 PWs)   bands (ev):

   -21.9055 -12.1825 -10.5823  -9.5960   1.7660   2.2600   2.5904   3.4046

          k = 0.1402 0.4046 0.0000 (  4940 PWs)   bands (ev):

   -20.9800 -13.7910 -11.2632  -8.5446   0.5548   3.0591   3.8827   4.7311

          k = 0.1402 0.4856 0.0000 (  4916 PWs)   bands (ev):

   -19.8750 -15.4229 -11.7125  -7.3756  -1.1155   4.6175   5.3096   5.4440

          k = 0.1402 0.5665 0.0000 (  4918 PWs)   bands (ev):

   -18.6635 -16.9161 -11.9372  -6.3732  -2.3878   5.1814   6.4668   7.1619

          k = 0.2103 0.3642 0.0000 (  4965 PWs)   bands (ev):

   -21.0826 -13.1973 -11.7766  -8.6507   0.8358   2.9172   3.7233   4.5869

          k = 0.2103 0.4451 0.0000 (  4941 PWs)   bands (ev):

   -20.0741 -14.4950 -12.6048  -7.5343  -0.6753   4.3443   5.1140   6.3027

          k = 0.2103 0.5260 0.0000 (  4929 PWs)   bands (ev):

   -18.9118 -15.9447 -13.0320  -6.3726  -2.0979   6.0234   6.5703   6.9762

          k = 0.2103 0.6070 0.0000 (  4934 PWs)   bands (ev):

   -17.9497 -17.0190 -13.1651  -5.7078  -2.8549   6.8978   7.2282   7.8098

          k = 0.2803 0.4856 0.0000 (  4944 PWs)   bands (ev):

   -19.0026 -15.2724 -13.7556  -6.3870  -1.9471   5.8866   6.3326   7.6296

          k = 0.2803 0.5665 0.0000 (  4943 PWs)   bands (ev):

   -17.8431 -16.3390 -14.3023  -5.2826  -3.1080   6.6906   7.6101   9.0845

          k = 0.3504 0.6070 0.0000 (  4926 PWs)   bands (ev):

   -16.8715 -16.8715 -14.9497  -4.1736  -4.1736   6.4885   8.8596   8.8596

     the Fermi energy is    -4.1736 ev

!    total energy              =     -22.79683898 Ry
     estimated scf accuracy    <          3.1E-11 Ry
     smearing contrib. (-TS)   =      -0.00005015 Ry
     internal energy E=F+TS    =     -22.79678883 Ry

     The total energy is F=E-TS. E is the sum of the following terms:
     one-electron contribution =    -393.05915691 Ry
     hartree contribution      =     197.16470530 Ry
     xc contribution           =      -7.04454541 Ry
     ewald contribution        =     180.14220820 Ry

     convergence has been achieved in  13 iterations

     Forces acting on atoms (cartesian axes, Ry/au):

     atom    1 type  1   force =     0.00000000    0.00000000    0.00000000
     atom    2 type  1   force =     0.00000000    0.00000000    0.00000000

     Total force =     0.000000     Total SCF correction =     0.000000


     Computing stress (Cartesian axis) and pressure

          total   stress  (Ry/bohr**3)                   (kbar)     P=       -1.04
   0.00003522  -0.00000000   0.00000000            5.18       -0.00        0.00
  -0.00000000   0.00003522  -0.00000000           -0.00        5.18       -0.00
   0.00000000   0.00000000  -0.00009159            0.00        0.00      -13.47

     Energy error            =      3.4E-03
     Gradient error          =      0.0E+00
     Cell gradient error     =      3.5E-05


     number of scf cycles    =   4
     number of bfgs steps    =   3

     enthalpy old            =     -22.7934373481 Ry
     enthalpy new            =     -22.7968389799 Ry

     CASE: enthalpy_new < enthalpy_old

     new trust radius        =       0.0145514705 bohr
     new conv_thr            =            1.0E-10 Ry

     new unit-cell volume =    753.57469 a.u.^3 (   111.66825 Ang^3 )
     density =      0.35721 g/cm^3

CELL_PARAMETERS (alat=  4.86000000)
   0.953748908   0.000000000   0.000000000
  -0.476874454   0.825970783   0.000000000
   0.000000000   0.000000000   8.333333333

ATOMIC_POSITIONS (crystal)
C             0.3333333333        0.6666666667        0.5000000000
C             0.6666666667        0.3333333333        0.5000000000



     Writing output data file ./work/LiC486.save/
     NEW-OLD atomic charge density approx. for the potential

     negative rho (up, down):  6.319E-07 0.000E+00
     extrapolated charge    8.04228, renormalised to    8.00000

     total cpu time spent up to now is        8.2 secs

     Self-consistent Calculation

     iteration #  1     ecut=    50.00 Ry     beta= 0.70
     Davidson diagonalization with overlap
     c_bands:  1 eigenvalues not converged
     c_bands:  1 eigenvalues not converged
     c_bands:  1 eigenvalues not converged
     ethr =  1.00E-06,  avg # of iterations = 13.7

     total cpu time spent up to now is        8.5 secs

     total energy              =     -22.79027176 Ry
     estimated scf accuracy    <       0.00167558 Ry

     iteration #  2     ecut=    50.00 Ry     beta= 0.70
     Davidson diagonalization with overlap
     c_bands:  2 eigenvalues not converged
     ethr =  2.09E-05,  avg # of iterations = 11.8

     total cpu time spent up to now is        8.9 secs

     total energy              =     -22.79709767 Ry
     estimated scf accuracy    <       0.00141609 Ry

     iteration #  3     ecut=    50.00 Ry     beta= 0.70
     Davidson diagonalization with overlap
     c_bands:  1 eigenvalues not converged
     ethr =  1.77E-05,  avg # of iterations =  4.3

     total cpu time spent up to now is        9.0 secs

     total energy              =     -22.79698568 Ry
     estimated scf accuracy    <       0.00035286 Ry

     iteration #  4     ecut=    50.00 Ry     beta= 0.70
     Davidson diagonalization with overlap
     ethr =  4.41E-06,  avg # of iterations =  5.2

     total cpu time spent up to now is        9.2 secs

     total energy              =     -22.79695930 Ry
     estimated scf accuracy    <       0.00013951 Ry

     iteration #  5     ecut=    50.00 Ry     beta= 0.70
     Davidson diagonalization with overlap
     ethr =  1.74E-06,  avg # of iterations =  2.1

     total cpu time spent up to now is        9.3 secs

     total energy              =     -22.79689204 Ry
     estimated scf accuracy    <       0.00009654 Ry

     iteration #  6     ecut=    50.00 Ry     beta= 0.70
     Davidson diagonalization with overlap
     ethr =  1.21E-06,  avg # of iterations =  3.8

     total cpu time spent up to now is        9.5 secs

     total energy              =     -22.79690301 Ry
     estimated scf accuracy    <       0.00000045 Ry

     iteration #  7     ecut=    50.00 Ry     beta= 0.70
     Davidson diagonalization with overlap
     ethr =  5.69E-09,  avg # of iterations =  2.7

     total cpu time spent up to now is        9.6 secs

     total energy              =     -22.79690319 Ry
     estimated scf accuracy    <       0.00000048 Ry

     iteration #  8     ecut=    50.00 Ry     beta= 0.70
     Davidson diagonalization with overlap
     ethr =  5.69E-09,  avg # of iterations =  1.0

     total cpu time spent up to now is        9.7 secs

     total energy              =     -22.79690406 Ry
     estimated scf accuracy    <       0.00000066 Ry

     iteration #  9     ecut=    50.00 Ry     beta= 0.70
     Davidson diagonalization with overlap
     ethr =  5.69E-09,  avg # of iterations =  3.2

     total cpu time spent up to now is        9.8 secs

     total energy              =     -22.79690416 Ry
     estimated scf accuracy    <          8.4E-09 Ry

     iteration # 10     ecut=    50.00 Ry     beta= 0.70
     Davidson diagonalization with overlap
     ethr =  1.05E-10,  avg # of iterations =  3.1

     total cpu time spent up to now is       10.0 secs

     total energy              =     -22.79690417 Ry
     estimated scf accuracy    <          2.0E-10 Ry

     iteration # 11     ecut=    50.00 Ry     beta= 0.70
     Davidson diagonalization with overlap
     ethr =  2.55E-12,  avg # of iterations =  3.2

     total cpu time spent up to now is       10.1 secs

     End of self-consistent calculation

          k = 0.0000 0.0000 0.0000 (  5035 PWs)   bands (ev):

   -23.8613 -11.9308  -7.2865  -7.2865  -0.9807  -0.1984   0.5953   0.9486

          k =-0.0000 0.0807 0.0000 (  5037 PWs)   bands (ev):

   -23.7556 -11.8036  -7.7130  -7.5122  -0.8367  -0.0523   0.7424   1.0951

          k =-0.0000 0.1614 0.0000 (  5009 PWs)   bands (ev):

   -23.4390 -11.4232  -8.8442  -8.0846  -0.4047   0.3856   1.1836   1.5343

          k =-0.0000 0.2421 0.0000 (  4983 PWs)   bands (ev):

   -22.9138 -10.7992 -10.3975  -8.7984   0.3148   1.1128   1.9187   2.2637

          k =-0.0000 0.3229 0.0000 (  4976 PWs)   bands (ev):

   -22.1842 -12.1387  -9.9454  -9.4936   1.3197   2.0940   2.7130   2.9457

          k =-0.0000 0.4036 0.0000 (  4942 PWs)   bands (ev):

   -21.2574 -13.9136 -10.0705  -8.8933   0.7815   2.6012   3.4604   3.6614

          k =-0.0000 0.4843 0.0000 (  4922 PWs)   bands (ev):

   -20.1490 -15.6242 -10.4781  -7.7326  -0.9965   3.4347   4.2065   5.0426

          k =-0.0000 0.5650 0.0000 (  4882 PWs)   bands (ev):

   -18.9313 -17.1523 -10.6867  -6.7607  -2.2970   3.3441   6.0235   6.8911

          k = 0.0699 0.1211 0.0000 (  5023 PWs)   bands (ev):

   -23.5444 -11.5500  -8.4385  -7.9641  -0.5486   0.2397   1.0366   1.3880

          k = 0.0699 0.2018 0.0000 (  4978 PWs)   bands (ev):

   -23.1235 -11.0474  -9.6910  -8.6981   0.0275   0.8226   1.6250   1.9727

          k = 0.0699 0.2825 0.0000 (  4970 PWs)   bands (ev):

   -22.4961 -11.2796 -10.3070  -9.4628   0.8904   1.6910   2.5070   2.8404

          k = 0.0699 0.3632 0.0000 (  4947 PWs)   bands (ev):

   -21.6678 -13.0071 -10.1298  -9.3496   1.6347   2.0367   2.8809   3.6781

          k = 0.0699 0.4439 0.0000 (  4937 PWs)   bands (ev):

   -20.6491 -14.7361 -10.6370  -8.2272  -0.1805   3.4473   4.0364   4.3142

          k = 0.0699 0.5246 0.0000 (  4896 PWs)   bands (ev):

   -19.4683 -16.3659 -10.9514  -7.0932  -1.7727   3.8494   5.1846   6.0244

          k = 0.0699 0.6053 0.0000 (  4900 PWs)   bands (ev):

   -18.4873 -17.5002 -11.0583  -6.4947  -2.5309   3.8004   7.0503   7.2067

          k = 0.1398 0.2421 0.0000 (  4969 PWs)   bands (ev):

   -22.6004 -10.7930 -10.4282  -9.6707   0.7475   1.5493   2.3606   2.7023

          k = 0.1398 0.3229 0.0000 (  4956 PWs)   bands (ev):

   -21.8743 -12.1928 -10.5838  -9.5805   1.7529   2.1922   2.5733   3.3899

          k = 0.1398 0.4036 0.0000 (  4940 PWs)   bands (ev):

   -20.9534 -13.7933 -11.2617  -8.5363   0.4995   3.0392   3.8601   4.7089

          k = 0.1398 0.4843 0.0000 (  4916 PWs)   bands (ev):

   -19.8544 -15.4165 -11.7090  -7.3758  -1.1569   4.5876   5.2042   5.4121

          k = 0.1398 0.5650 0.0000 (  4918 PWs)   bands (ev):

   -18.6526 -16.8985 -11.9326  -6.3815  -2.4182   5.0732   6.4277   7.1182

          k = 0.2097 0.3632 0.0000 (  4965 PWs)   bands (ev):

   -21.0554 -13.2064 -11.7692  -8.6416   0.7769   2.8981   3.7017   4.5659

          k = 0.2097 0.4439 0.0000 (  4941 PWs)   bands (ev):

   -20.0521 -14.4976 -12.5938  -7.5332  -0.7225   4.3174   5.0840   6.0316

          k = 0.2097 0.5246 0.0000 (  4929 PWs)   bands (ev):

   -18.8969 -15.9375 -13.0205  -6.3801  -2.1336   5.9863   6.5303   6.8639

          k = 0.2097 0.6053 0.0000 (  4934 PWs)   bands (ev):

   -17.9471 -16.9985 -13.1536  -5.7209  -2.8842   6.7841   7.1830   7.7605

          k = 0.2796 0.4843 0.0000 (  4944 PWs)   bands (ev):

   -18.9867 -15.2762 -13.7339  -6.3941  -1.9856   5.8509   6.2944   7.5911

          k = 0.2796 0.5650 0.0000 (  4943 PWs)   bands (ev):

   -17.8360 -16.3345 -14.2783  -5.2981  -3.1380   6.6520   7.5618   8.5247

          k = 0.3495 0.6053 0.0000 (  4926 PWs)   bands (ev):

   -16.8715 -16.8715 -14.9136  -4.1967  -4.1967   6.4530   8.7835   8.7835

     the Fermi energy is    -4.1967 ev

!    total energy              =     -22.79690417 Ry
     estimated scf accuracy    <          1.1E-11 Ry
     smearing contrib. (-TS)   =      -0.00005015 Ry
     internal energy E=F+TS    =     -22.79685402 Ry

     The total energy is F=E-TS. E is the sum of the following terms:
     one-electron contribution =    -390.95344263 Ry
     hartree contribution      =     196.10637224 Ry
     xc contribution           =      -7.03304009 Ry
     ewald contribution        =     179.08325646 Ry

     convergence has been achieved in  11 iterations

     Forces acting on atoms (cartesian axes, Ry/au):

     atom    1 type  1   force =     0.00000000    0.00000000    0.00000000
     atom    2 type  1   force =    -0.00000000   -0.00000000    0.00000000

     Total force =     0.000000     Total SCF correction =     0.000000


     Computing stress (Cartesian axis) and pressure

          total   stress  (Ry/bohr**3)                   (kbar)     P=       -4.73
  -0.00000237   0.00000000   0.00000000           -0.35        0.00        0.00
   0.00000000  -0.00000237   0.00000000            0.00       -0.35        0.00
   0.00000000  -0.00000000  -0.00009181            0.00       -0.00      -13.51

     Energy error            =      6.5E-05
     Gradient error          =      1.8E-26
     Cell gradient error     =      2.4E-06


     number of scf cycles    =   5
     number of bfgs steps    =   4

     enthalpy old            =     -22.7968389799 Ry
     enthalpy new            =     -22.7969041679 Ry

     CASE: enthalpy_new < enthalpy_old

     new trust radius        =       0.0009184037 bohr
     new conv_thr            =            1.0E-10 Ry

     new unit-cell volume =    753.32259 a.u.^3 (   111.63089 Ang^3 )
     density =      0.35732 g/cm^3

CELL_PARAMETERS (alat=  4.86000000)
   0.953589366   0.000000000   0.000000000
  -0.476794683   0.825832616   0.000000000
   0.000000000   0.000000000   8.333333333

ATOMIC_POSITIONS (crystal)
C             0.3333333333        0.6666666667        0.5000000000
C             0.6666666667        0.3333333333        0.5000000000



     Writing output data file ./work/LiC486.save/
     NEW-OLD atomic charge density approx. for the potential
     extrapolated charge    7.99733, renormalised to    8.00000

     total cpu time spent up to now is       10.2 secs

     Self-consistent Calculation

     iteration #  1     ecut=    50.00 Ry     beta= 0.70
     Davidson diagonalization with overlap
     ethr =  1.00E-06,  avg # of iterations =  5.5

     Threshold (ethr) on eigenvalues was too large:
     Diagonalizing with lowered threshold

     Davidson diagonalization with overlap
     ethr =  2.59E-08,  avg # of iterations =  1.0

     total cpu time spent up to now is       10.5 secs

     total energy              =     -22.79690024 Ry
     estimated scf accuracy    <       0.00000217 Ry

     iteration #  2     ecut=    50.00 Ry     beta= 0.70
     Davidson diagonalization with overlap
     ethr =  2.71E-08,  avg # of iterations =  4.2

     total cpu time spent up to now is       10.7 secs

     total energy              =     -22.79690460 Ry
     estimated scf accuracy    <       0.00000202 Ry

     iteration #  3     ecut=    50.00 Ry     beta= 0.70
     Davidson diagonalization with overlap
     ethr =  2.53E-08,  avg # of iterations =  1.0

     total cpu time spent up to now is       10.8 secs

     total energy              =     -22.79690446 Ry
     estimated scf accuracy    <       0.00000047 Ry

     iteration #  4     ecut=    50.00 Ry     beta= 0.70
     Davidson diagonalization with overlap
     ethr =  5.85E-09,  avg # of iterations =  1.9

     total cpu time spent up to now is       10.9 secs

     total energy              =     -22.79690450 Ry
     estimated scf accuracy    <       0.00000007 Ry

     iteration #  5     ecut=    50.00 Ry     beta= 0.70
     Davidson diagonalization with overlap
     ethr =  8.59E-10,  avg # of iterations =  1.0

     total cpu time spent up to now is       11.0 secs

     total energy              =     -22.79690448 Ry
     estimated scf accuracy    <       0.00000007 Ry

     iteration #  6     ecut=    50.00 Ry     beta= 0.70
     Davidson diagonalization with overlap
     ethr =  8.59E-10,  avg # of iterations =  1.0

     total cpu time spent up to now is       11.1 secs

     total energy              =     -22.79690446 Ry
     estimated scf accuracy    <       0.00000004 Ry

     iteration #  7     ecut=    50.00 Ry     beta= 0.70
     Davidson diagonalization with overlap
     ethr =  4.79E-10,  avg # of iterations =  2.0

     total cpu time spent up to now is       11.2 secs

     total energy              =     -22.79690447 Ry
     estimated scf accuracy    <          2.7E-10 Ry

     iteration #  8     ecut=    50.00 Ry     beta= 0.70
     Davidson diagonalization with overlap
     ethr =  3.41E-12,  avg # of iterations =  2.7

     total cpu time spent up to now is       11.4 secs

     End of self-consistent calculation

          k = 0.0000 0.0000 0.0000 (  5035 PWs)   bands (ev):

   -23.8638 -11.9328  -7.2848  -7.2848  -0.9807  -0.1984   0.5952   0.9486

          k =-0.0000 0.0807 0.0000 (  5037 PWs)   bands (ev):

   -23.7581 -11.8054  -7.7115  -7.5106  -0.8367  -0.0522   0.7423   1.0951

          k =-0.0000 0.1615 0.0000 (  5009 PWs)   bands (ev):

   -23.4414 -11.4249  -8.8428  -8.0833  -0.4046   0.3858   1.1837   1.5344

          k =-0.0000 0.2422 0.0000 (  4983 PWs)   bands (ev):

   -22.9160 -10.8007 -10.3965  -8.7975   0.3152   1.1133   1.9191   2.2640

          k =-0.0000 0.3229 0.0000 (  4976 PWs)   bands (ev):

   -22.1862 -12.1381  -9.9465  -9.4930   1.3204   2.0948   2.7167   2.9464

          k =-0.0000 0.4036 0.0000 (  4942 PWs)   bands (ev):

   -21.2591 -13.9136 -10.0702  -8.8939   0.7850   2.6023   3.4614   3.6674

          k =-0.0000 0.4844 0.0000 (  4922 PWs)   bands (ev):

   -20.1503 -15.6247 -10.4780  -7.7327  -0.9939   3.4409   4.2083   5.0444

          k =-0.0000 0.5651 0.0000 (  4882 PWs)   bands (ev):

   -18.9320 -17.1536 -10.6866  -6.7603  -2.2952   3.3507   6.0257   6.8937

          k = 0.0699 0.1211 0.0000 (  5023 PWs)   bands (ev):

   -23.5468 -11.5517  -8.4371  -7.9627  -0.5486   0.2398   1.0366   1.3880

          k = 0.0699 0.2018 0.0000 (  4978 PWs)   bands (ev):

   -23.1258 -11.0490  -9.6898  -8.6971   0.0278   0.8230   1.6252   1.9730

          k = 0.0699 0.2825 0.0000 (  4970 PWs)   bands (ev):

   -22.4982 -11.2788 -10.3082  -9.4622   0.8910   1.6917   2.5075   2.8406

          k = 0.0699 0.3633 0.0000 (  4947 PWs)   bands (ev):

   -21.6697 -13.0068 -10.1294  -9.3505   1.6387   2.0377   2.8818   3.6789

          k = 0.0699 0.4440 0.0000 (  4937 PWs)   bands (ev):

   -20.6506 -14.7363 -10.6368  -8.2275  -0.1775   3.4489   4.0427   4.3156

          k = 0.0699 0.5247 0.0000 (  4896 PWs)   bands (ev):

   -19.4693 -16.3667 -10.9513  -7.0930  -1.7706   3.8560   5.1866   6.0264

          k = 0.0699 0.6054 0.0000 (  4900 PWs)   bands (ev):

   -18.4875 -17.5019 -11.0583  -6.4942  -2.5291   3.8071   7.0530   7.2094

          k = 0.1398 0.2422 0.0000 (  4969 PWs)   bands (ev):

   -22.6025 -10.7919 -10.4295  -9.6702   0.7480   1.5499   2.3611   2.7028

          k = 0.1398 0.3229 0.0000 (  4956 PWs)   bands (ev):

   -21.8762 -12.1921 -10.5837  -9.5814   1.7538   2.1966   2.5742   3.3907

          k = 0.1398 0.4036 0.0000 (  4940 PWs)   bands (ev):

   -20.9550 -13.7931 -11.2617  -8.5368   0.5030   3.0405   3.8613   4.7101

          k = 0.1398 0.4844 0.0000 (  4916 PWs)   bands (ev):

   -19.8556 -15.4169 -11.7091  -7.3758  -1.1543   4.5895   5.2109   5.4141

          k = 0.1398 0.5651 0.0000 (  4918 PWs)   bands (ev):

   -18.6532 -16.8995 -11.9329  -6.3809  -2.4162   5.0801   6.4301   7.1208

          k = 0.2097 0.3633 0.0000 (  4965 PWs)   bands (ev):

   -21.0571 -13.2058 -11.7696  -8.6421   0.7806   2.8993   3.7029   4.5671

          k = 0.2097 0.4440 0.0000 (  4941 PWs)   bands (ev):

   -20.0534 -14.4974 -12.5944  -7.5332  -0.7195   4.3191   5.0859   6.0332

          k = 0.2097 0.5247 0.0000 (  4929 PWs)   bands (ev):

   -18.8978 -15.9379 -13.0212  -6.3796  -2.1313   5.9887   6.5328   6.8710

          k = 0.2097 0.6054 0.0000 (  4934 PWs)   bands (ev):

   -17.9472 -16.9998 -13.1543  -5.7200  -2.8823   6.7913   7.1858   7.7636

          k = 0.2796 0.4844 0.0000 (  4944 PWs)   bands (ev):

   -18.9876 -15.2759 -13.7352  -6.3937  -1.9831   5.8532   6.2968   7.5935

          k = 0.2796 0.5651 0.0000 (  4943 PWs)   bands (ev):

   -17.8364 -16.3348 -14.2798  -5.2971  -3.1360   6.6544   7.5648   8.5316

          k = 0.3496 0.6054 0.0000 (  4926 PWs)   bands (ev):

   -16.8714 -16.8714 -14.9158  -4.1952  -4.1952   6.4553   8.7883   8.7883

     the Fermi energy is    -4.1952 ev

!    total energy              =     -22.79690447 Ry
     estimated scf accuracy    <          6.0E-11 Ry
     smearing contrib. (-TS)   =      -0.00005015 Ry
     internal energy E=F+TS    =     -22.79685432 Ry

     The total energy is F=E-TS. E is the sum of the following terms:
     one-electron contribution =    -391.08581875 Ry
     hartree contribution      =     196.17289200 Ry
     xc contribution           =      -7.03376172 Ry
     ewald contribution        =     179.14983415 Ry

     convergence has been achieved in   8 iterations

     Forces acting on atoms (cartesian axes, Ry/au):

     atom    1 type  1   force =     0.00000000    0.00000000    0.00000000
     atom    2 type  1   force =     0.00000000    0.00000000    0.00000000

     Total force =     0.000000     Total SCF correction =     0.000000


     Computing stress (Cartesian axis) and pressure

          total   stress  (Ry/bohr**3)                   (kbar)     P=       -4.50
  -0.00000002   0.00000000   0.00000000           -0.00        0.00        0.00
   0.00000000  -0.00000002   0.00000000            0.00       -0.00        0.00
   0.00000000   0.00000000  -0.00009182            0.00        0.00      -13.51

     Energy error            =      3.0E-07
     Gradient error          =      0.0E+00
     Cell gradient error     =      2.1E-08


     number of scf cycles    =   6
     number of bfgs steps    =   5

     enthalpy old            =     -22.7969041679 Ry
     enthalpy new            =     -22.7969044692 Ry

     CASE: enthalpy_new < enthalpy_old

     small trust_radius: resetting bfgs history

     new trust radius        =       0.0000028734 bohr
     new conv_thr            =            1.0E-10 Ry

     new unit-cell volume =    753.32180 a.u.^3 (   111.63077 Ang^3 )
     density =      0.35733 g/cm^3

CELL_PARAMETERS (alat=  4.86000000)
   0.953588867   0.000000000   0.000000000
  -0.476794434   0.825832184   0.000000000
   0.000000000   0.000000000   8.333333333

ATOMIC_POSITIONS (crystal)
C             0.3333333333        0.6666666667        0.5000000000
C             0.6666666667        0.3333333333        0.5000000000



     Writing output data file ./work/LiC486.save/
     NEW-OLD atomic charge density approx. for the potential
     extrapolated charge    7.99999, renormalised to    8.00000

     total cpu time spent up to now is       11.4 secs

     Self-consistent Calculation

     iteration #  1     ecut=    50.00 Ry     beta= 0.70
     Davidson diagonalization with overlap
     ethr =  1.00E-06,  avg # of iterations =  1.0

     Threshold (ethr) on eigenvalues was too large:
     Diagonalizing with lowered threshold

     Davidson diagonalization with overlap
     ethr =  8.88E-13,  avg # of iterations =  2.0

     total cpu time spent up to now is       11.7 secs

     End of self-consistent calculation

          k = 0.0000 0.0000 0.0000 (  5035 PWs)   bands (ev):

   -23.8647 -11.9335  -7.2857  -7.2857  -0.9812  -0.1986   0.5954   0.9486

          k =-0.0000 0.0807 0.0000 (  5037 PWs)   bands (ev):

   -23.7589 -11.8062  -7.7123  -7.5115  -0.8372  -0.0525   0.7425   1.0952

          k =-0.0000 0.1615 0.0000 (  5009 PWs)   bands (ev):

   -23.4422 -11.4257  -8.8437  -8.0842  -0.4050   0.3856   1.1838   1.5345

          k =-0.0000 0.2422 0.0000 (  4983 PWs)   bands (ev):

   -22.9169 -10.8014 -10.3974  -8.7983   0.3147   1.1130   1.9192   2.2641

          k =-0.0000 0.3229 0.0000 (  4976 PWs)   bands (ev):

   -22.1870 -12.1390  -9.9473  -9.4939   1.3199   2.0945   2.7160   2.9465

          k =-0.0000 0.4036 0.0000 (  4942 PWs)   bands (ev):

   -21.2600 -13.9144 -10.0711  -8.8947   0.7842   2.6018   3.4612   3.6666

          k =-0.0000 0.4844 0.0000 (  4922 PWs)   bands (ev):

   -20.1512 -15.6256 -10.4788  -7.7335  -0.9947   3.4401   4.2078   5.0441

          k =-0.0000 0.5651 0.0000 (  4882 PWs)   bands (ev):

   -18.9328 -17.1544 -10.6875  -6.7611  -2.2960   3.3499   6.0253   6.8934

          k = 0.0699 0.1211 0.0000 (  5023 PWs)   bands (ev):

   -23.5477 -11.5525  -8.4379  -7.9636  -0.5490   0.2396   1.0367   1.3881

          k = 0.0699 0.2018 0.0000 (  4978 PWs)   bands (ev):

   -23.1267 -11.0497  -9.6907  -8.6980   0.0273   0.8228   1.6253   1.9731

          k = 0.0699 0.2825 0.0000 (  4970 PWs)   bands (ev):

   -22.4990 -11.2796 -10.3090  -9.4631   0.8905   1.6915   2.5077   2.8407

          k = 0.0699 0.3633 0.0000 (  4947 PWs)   bands (ev):

   -21.6705 -13.0076 -10.1303  -9.3512   1.6379   2.0372   2.8815   3.6790

          k = 0.0699 0.4440 0.0000 (  4937 PWs)   bands (ev):

   -20.6514 -14.7371 -10.6377  -8.2283  -0.1783   3.4484   4.0419   4.3153

          k = 0.0699 0.5247 0.0000 (  4896 PWs)   bands (ev):

   -19.4702 -16.3675 -10.9522  -7.0938  -1.7713   3.8552   5.1861   6.0261

          k = 0.0699 0.6054 0.0000 (  4900 PWs)   bands (ev):

   -18.4883 -17.5027 -11.0592  -6.4950  -2.5299   3.8063   7.0525   7.2089

          k = 0.1398 0.2422 0.0000 (  4969 PWs)   bands (ev):

   -22.6034 -10.7928 -10.4302  -9.6711   0.7475   1.5497   2.3612   2.7029

          k = 0.1398 0.3229 0.0000 (  4956 PWs)   bands (ev):

   -21.8771 -12.1930 -10.5846  -9.5822   1.7533   2.1958   2.5739   3.3909

          k = 0.1398 0.4036 0.0000 (  4940 PWs)   bands (ev):

   -20.9559 -13.7940 -11.2626  -8.5376   0.5022   3.0400   3.8610   4.7103

          k = 0.1398 0.4844 0.0000 (  4916 PWs)   bands (ev):

   -19.8564 -15.4177 -11.7100  -7.3766  -1.1550   4.5890   5.2101   5.4138

          k = 0.1398 0.5651 0.0000 (  4918 PWs)   bands (ev):

   -18.6541 -16.9004 -11.9337  -6.3817  -2.4170   5.0793   6.4296   7.1204

          k = 0.2097 0.3633 0.0000 (  4965 PWs)   bands (ev):

   -21.0579 -13.2067 -11.7705  -8.6429   0.7798   2.8988   3.7026   4.5672

          k = 0.2097 0.4440 0.0000 (  4941 PWs)   bands (ev):

   -20.0543 -14.4983 -12.5953  -7.5340  -0.7203   4.3187   5.0856   6.0334

          k = 0.2097 0.5247 0.0000 (  4929 PWs)   bands (ev):

   -18.8986 -15.9388 -13.0221  -6.3804  -2.1321   5.9882   6.5323   6.8702

          k = 0.2097 0.6054 0.0000 (  4934 PWs)   bands (ev):

   -17.9481 -17.0006 -13.1551  -5.7208  -2.8831   6.7905   7.1852   7.7631

          k = 0.2796 0.4844 0.0000 (  4944 PWs)   bands (ev):

   -18.9885 -15.2767 -13.7361  -6.3944  -1.9839   5.8527   6.2964   7.5935

          k = 0.2796 0.5651 0.0000 (  4943 PWs)   bands (ev):

   -17.8372 -16.3356 -14.2806  -5.2979  -3.1368   6.6538   7.5643   8.5308

          k = 0.3496 0.6054 0.0000 (  4926 PWs)   bands (ev):

   -16.8723 -16.8723 -14.9167  -4.1960  -4.1960   6.4546   8.7877   8.7877

     the Fermi energy is    -4.1960 ev

!    total energy              =     -22.79690447 Ry
     estimated scf accuracy    <          7.7E-11 Ry
     smearing contrib. (-TS)   =      -0.00005015 Ry
     internal energy E=F+TS    =     -22.79685432 Ry

     The total energy is F=E-TS. E is the sum of the following terms:
     one-electron contribution =    -391.08632542 Ry
     hartree contribution      =     196.17320254 Ry
     xc contribution           =      -7.03377395 Ry
     ewald contribution        =     179.15004251 Ry

     convergence has been achieved in   1 iterations

     Forces acting on atoms (cartesian axes, Ry/au):

     atom    1 type  1   force =     0.00000000    0.00000000    0.00000000
     atom    2 type  1   force =     0.00000000    0.00000000    0.00000000

     Total force =     0.000000     Total SCF correction =     0.000000


     Computing stress (Cartesian axis) and pressure

          total   stress  (Ry/bohr**3)                   (kbar)     P=       -4.50
  -0.00000002   0.00000000   0.00000000           -0.00        0.00        0.00
   0.00000000  -0.00000002   0.00000000            0.00       -0.00        0.00
   0.00000000   0.00000000  -0.00009171            0.00        0.00      -13.49

     Energy error            =      5.3E-11
     Gradient error          =      0.0E+00
     Cell gradient error     =      2.3E-08


     number of scf cycles    =   7
     number of bfgs steps    =   6

     enthalpy old            =     -22.7969044692 Ry
     enthalpy new            =     -22.7969044692 Ry

     CASE: enthalpy_new > enthalpy_old

     new trust radius        =       0.0000003403 bohr

     trust_radius < trust_radius_min

     resetting bfgs history

     Message from routine bfgs:
     history already reset at previous step: stopping
     new conv_thr            =            1.0E-10 Ry

     new unit-cell volume =    753.32180 a.u.^3 (   111.63077 Ang^3 )
     density =      0.35733 g/cm^3

CELL_PARAMETERS (alat=  4.86000000)
   0.953588867   0.000000000   0.000000000
  -0.476794434   0.825832184   0.000000000
   0.000000000   0.000000000   8.333333333

ATOMIC_POSITIONS (crystal)
C             0.3333333333        0.6666666667        0.5000000000
C             0.6666666667        0.3333333333        0.5000000000



     Writing output data file ./work/LiC486.save/
     NEW-OLD atomic charge density approx. for the potential

     total cpu time spent up to now is       11.7 secs

     Self-consistent Calculation

     iteration #  1     ecut=    50.00 Ry     beta= 0.70
     Davidson diagonalization with overlap
     ethr =  1.00E-06,  avg # of iterations =  1.0

     Threshold (ethr) on eigenvalues was too large:
     Diagonalizing with lowered threshold

     Davidson diagonalization with overlap
     ethr =  8.50E-13,  avg # of iterations =  1.8

     total cpu time spent up to now is       12.0 secs

     End of self-consistent calculation

          k = 0.0000 0.0000 0.0000 (  5035 PWs)   bands (ev):

   -23.8638 -11.9327  -7.2848  -7.2848  -0.9807  -0.1984   0.5952   0.9486

          k =-0.0000 0.0807 0.0000 (  5037 PWs)   bands (ev):

   -23.7580 -11.8054  -7.7114  -7.5106  -0.8367  -0.0522   0.7423   1.0951

          k =-0.0000 0.1615 0.0000 (  5009 PWs)   bands (ev):

   -23.4414 -11.4249  -8.8428  -8.0833  -0.4046   0.3858   1.1837   1.5344

          k =-0.0000 0.2422 0.0000 (  4983 PWs)   bands (ev):

   -22.9160 -10.8006 -10.3965  -8.7974   0.3152   1.1133   1.9191   2.2640

          k =-0.0000 0.3229 0.0000 (  4976 PWs)   bands (ev):

   -22.1862 -12.1381  -9.9465  -9.4930   1.3204   2.0948   2.7167   2.9464

          k =-0.0000 0.4036 0.0000 (  4942 PWs)   bands (ev):

   -21.2591 -13.9136 -10.0702  -8.8939   0.7850   2.6023   3.4614   3.6674

          k =-0.0000 0.4844 0.0000 (  4922 PWs)   bands (ev):

   -20.1503 -15.6247 -10.4779  -7.7327  -0.9939   3.4410   4.2083   5.0444

          k =-0.0000 0.5651 0.0000 (  4882 PWs)   bands (ev):

   -18.9319 -17.1535 -10.6866  -6.7603  -2.2952   3.3507   6.0257   6.8937

          k = 0.0699 0.1211 0.0000 (  5023 PWs)   bands (ev):

   -23.5468 -11.5517  -8.4370  -7.9627  -0.5485   0.2399   1.0366   1.3880

          k = 0.0699 0.2018 0.0000 (  4978 PWs)   bands (ev):

   -23.1258 -11.0489  -9.6898  -8.6971   0.0278   0.8230   1.6252   1.9730

          k = 0.0699 0.2825 0.0000 (  4970 PWs)   bands (ev):

   -22.4982 -11.2787 -10.3082  -9.4622   0.8910   1.6917   2.5076   2.8406

          k = 0.0699 0.3633 0.0000 (  4947 PWs)   bands (ev):

   -21.6696 -13.0067 -10.1294  -9.3504   1.6387   2.0377   2.8818   3.6788

          k = 0.0699 0.4440 0.0000 (  4937 PWs)   bands (ev):

   -20.6505 -14.7362 -10.6368  -8.2275  -0.1774   3.4489   4.0428   4.3156

          k = 0.0699 0.5247 0.0000 (  4896 PWs)   bands (ev):

   -19.4693 -16.3666 -10.9513  -7.0930  -1.7705   3.8560   5.1866   6.0264

          k = 0.0699 0.6054 0.0000 (  4900 PWs)   bands (ev):

   -18.4874 -17.5018 -11.0583  -6.4941  -2.5291   3.8071   7.0530   7.2094

          k = 0.1398 0.2422 0.0000 (  4969 PWs)   bands (ev):

   -22.6025 -10.7919 -10.4294  -9.6702   0.7480   1.5499   2.3611   2.7028

          k = 0.1398 0.3229 0.0000 (  4956 PWs)   bands (ev):

   -21.8762 -12.1921 -10.5837  -9.5814   1.7538   2.1966   2.5742   3.3907

          k = 0.1398 0.4036 0.0000 (  4940 PWs)   bands (ev):

   -20.9550 -13.7931 -11.2617  -8.5368   0.5030   3.0405   3.8613   4.7101

          k = 0.1398 0.4844 0.0000 (  4916 PWs)   bands (ev):

   -19.8556 -15.4169 -11.7091  -7.3757  -1.1542   4.5895   5.2109   5.4141

          k = 0.1398 0.5651 0.0000 (  4918 PWs)   bands (ev):

   -18.6532 -16.8995 -11.9328  -6.3809  -2.4162   5.0801   6.4301   7.1208

          k = 0.2097 0.3633 0.0000 (  4965 PWs)   bands (ev):

   -21.0571 -13.2058 -11.7696  -8.6421   0.7807   2.8993   3.7029   4.5671

          k = 0.2097 0.4440 0.0000 (  4941 PWs)   bands (ev):

   -20.0534 -14.4974 -12.5944  -7.5332  -0.7194   4.3191   5.0859   6.0333

          k = 0.2097 0.5247 0.0000 (  4929 PWs)   bands (ev):

   -18.8977 -15.9379 -13.0212  -6.3796  -2.1313   5.9887   6.5328   6.8711

          k = 0.2097 0.6054 0.0000 (  4934 PWs)   bands (ev):

   -17.9472 -16.9997 -13.1542  -5.7200  -2.8823   6.7914   7.1859   7.7636

          k = 0.2796 0.4844 0.0000 (  4944 PWs)   bands (ev):

   -18.9876 -15.2759 -13.7352  -6.3936  -1.9831   5.8532   6.2969   7.5935

          k = 0.2796 0.5651 0.0000 (  4943 PWs)   bands (ev):

   -17.8364 -16.3347 -14.2797  -5.2970  -3.1360   6.6545   7.5648   8.5316

          k = 0.3496 0.6054 0.0000 (  4926 PWs)   bands (ev):

   -16.8714 -16.8714 -14.9158  -4.1952  -4.1952   6.4553   8.7884   8.7884

     the Fermi energy is    -4.1952 ev

!    total energy              =     -22.79690447 Ry
     estimated scf accuracy    <          7.2E-11 Ry
     smearing contrib. (-TS)   =      -0.00005015 Ry
     internal energy E=F+TS    =     -22.79685432 Ry

     The total energy is F=E-TS. E is the sum of the following terms:
     one-electron contribution =    -391.08623092 Ry
     hartree contribution      =     196.17309810 Ry
     xc contribution           =      -7.03376401 Ry
     ewald contribution        =     179.15004251 Ry

     convergence has been achieved in   1 iterations

     Forces acting on atoms (cartesian axes, Ry/au):

     atom    1 type  1   force =     0.00000000    0.00000000    0.00000000
     atom    2 type  1   force =    -0.00000000   -0.00000000    0.00000000

     Total force =     0.000000     Total SCF correction =     0.000000


     Computing stress (Cartesian axis) and pressure

          total   stress  (Ry/bohr**3)                   (kbar)     P=       -4.50
  -0.00000001   0.00000000  -0.00000000           -0.00        0.00       -0.00
   0.00000000  -0.00000001   0.00000000            0.00       -0.00        0.00
  -0.00000000   0.00000000  -0.00009182           -0.00        0.00      -13.51

     Message from routine bfgs:
     history already reset at previous step: stopping
     Energy error            =      6.9E-12
     Gradient error          =      1.8E-26
     Cell gradient error     =      1.1E-08


     bfgs converged in   8 scf cycles and   6 bfgs steps
     (criteria: energy <  1.0E-04 Ry, force <  1.0E-08Ry/Bohr, cell <  1.0E-03kbar)

     End of BFGS Geometry Optimization

     Final enthalpy =     -22.7969044692 Ry

     File ./work/LiC486.bfgs deleted, as requested
Begin final coordinates
     new unit-cell volume =    753.32180 a.u.^3 (   111.63077 Ang^3 )
     density =      0.35733 g/cm^3

CELL_PARAMETERS (alat=  4.86000000)
   0.953588867   0.000000000   0.000000000
  -0.476794434   0.825832184   0.000000000
   0.000000000   0.000000000   8.333333333

ATOMIC_POSITIONS (crystal)
C             0.3333333333        0.6666666667        0.5000000000
C             0.6666666667        0.3333333333        0.5000000000
End final coordinates



     Writing output data file ./work/LiC486.save/

     Final scf calculation at the relaxed structure.
     The G-vectors are recalculated for the final unit cell
     Results may differ from those at the preceding step.
 
     Parallelization info
     --------------------
     sticks:   dense  smooth     PW     G-vecs:    dense   smooth      PW
     Min           9       9      2                 1115     1115     170
     Max          10      10      3                 1146     1146     215
     Sum         301     301     91                36039    36039    6397
 


     bravais-lattice index     =            4
     lattice parameter (alat)  =       4.8600  a.u.
     unit-cell volume          =     753.3218 (a.u.)^3
     number of atoms/cell      =            2
     number of atomic types    =            1
     number of electrons       =         8.00
     number of Kohn-Sham states=            8
     kinetic-energy cutoff     =      50.0000  Ry
     charge density cutoff     =     200.0000  Ry
     scf convergence threshold =      1.0E-10
     mixing beta               =       0.7000
     number of iterations used =            8  plain     mixing
     press convergence thresh. =      1.0E-03
     Exchange-correlation= PBE
                           (   1   4   3   4   0   0   0)

     celldm(1)=   4.860000  celldm(2)=   0.000000  celldm(3)=   8.333333
     celldm(4)=   0.000000  celldm(5)=   0.000000  celldm(6)=   0.000000

     crystal axes: (cart. coord. in units of alat)
               a(1) = (   0.953589   0.000000   0.000000 )  
               a(2) = (  -0.476794   0.825832   0.000000 )  
               a(3) = (   0.000000   0.000000   8.333333 )  

     reciprocal axes: (cart. coord. in units 2 pi/alat)
               b(1) = (  1.048670  0.605450  0.000000 )  
               b(2) = ( -0.000000  1.210900  0.000000 )  
               b(3) = (  0.000000  0.000000  0.120000 )  


     PseudoPot. # 1 for C  read from file:
     /home/yhkim/qe-6.7/pseudo/ONCV1/1.2/C_ONCV_PBE-1.2.upf
     MD5 check sum: 1a5f83a7b1f58d24996abe00ed223ac6
     Pseudo is Norm-conserving, Zval =  4.0
     Generated using ONCVPSP code by D. R. Hamann
     Using radial grid of  602 points,  4 beta functions with: 
                l(1) =   0
                l(2) =   0
                l(3) =   1
                l(4) =   1

     atomic species   valence    mass     pseudopotential
        C              4.00    12.01070     C ( 1.00)

     24 Sym. Ops., with inversion, found



   Cartesian axes

     site n.     atom                  positions (alat units)
         1           C   tau(   1) = (  -0.0000000   0.5505548   4.1666667  )
         2           C   tau(   2) = (   0.4767944   0.2752774   4.1666667  )

     number of k points=    27  Methfessel-Paxton smearing, width (Ry)=  0.0100
                       cart. coord. in units 2pi/alat
        k(    1) = (   0.0000000   0.0000000   0.0000000), wk =   0.0088889
        k(    2) = (  -0.0000000   0.0807267   0.0000000), wk =   0.0533333
        k(    3) = (  -0.0000000   0.1614533   0.0000000), wk =   0.0533333
        k(    4) = (  -0.0000000   0.2421800   0.0000000), wk =   0.0533333
        k(    5) = (  -0.0000000   0.3229066   0.0000000), wk =   0.0533333
        k(    6) = (  -0.0000000   0.4036333   0.0000000), wk =   0.0533333
        k(    7) = (  -0.0000000   0.4843599   0.0000000), wk =   0.0533333
        k(    8) = (  -0.0000000   0.5650866   0.0000000), wk =   0.0533333
        k(    9) = (   0.0699113   0.1210900   0.0000000), wk =   0.0533333
        k(   10) = (   0.0699113   0.2018166   0.0000000), wk =   0.1066667
        k(   11) = (   0.0699113   0.2825433   0.0000000), wk =   0.1066667
        k(   12) = (   0.0699113   0.3632699   0.0000000), wk =   0.1066667
        k(   13) = (   0.0699113   0.4439966   0.0000000), wk =   0.1066667
        k(   14) = (   0.0699113   0.5247232   0.0000000), wk =   0.1066667
        k(   15) = (   0.0699113   0.6054499   0.0000000), wk =   0.0533333
        k(   16) = (   0.1398227   0.2421800   0.0000000), wk =   0.0533333
        k(   17) = (   0.1398227   0.3229066   0.0000000), wk =   0.1066667
        k(   18) = (   0.1398227   0.4036333   0.0000000), wk =   0.1066667
        k(   19) = (   0.1398227   0.4843599   0.0000000), wk =   0.1066667
        k(   20) = (   0.1398227   0.5650866   0.0000000), wk =   0.1066667
        k(   21) = (   0.2097340   0.3632699   0.0000000), wk =   0.0533333
        k(   22) = (   0.2097340   0.4439966   0.0000000), wk =   0.1066667
        k(   23) = (   0.2097340   0.5247232   0.0000000), wk =   0.1066667
        k(   24) = (   0.2097340   0.6054499   0.0000000), wk =   0.0533333
        k(   25) = (   0.2796453   0.4843599   0.0000000), wk =   0.0533333
        k(   26) = (   0.2796453   0.5650866   0.0000000), wk =   0.1066667
        k(   27) = (   0.3495567   0.6054499   0.0000000), wk =   0.0177778

     Dense  grid:    36039 G-vectors     FFT dimensions: (  24,  24, 192)

     Estimated max dynamical RAM per process >       1.96 MB

     Estimated total dynamical RAM >      62.58 MB
 ----2D----2D----2D----2D----2D----2D----2D----2D----2D----2D----2D----2D
  The code is running with the 2D cutoff
  Please refer to:
  Sohier, T., Calandra, M., & Mauri, F. (2017), 
  Density functional perturbation theory for gated two-dimensional heterostructu
 res:
  Theoretical developments and application to flexural phonons in graphene.
  Physical Review B, 96(7), 75448. https://doi.org/10.1103/PhysRevB.96.075448
 ----2D----2D----2D----2D----2D----2D----2D----2D----2D----2D----2D----2D

     Initial potential from superposition of free atoms

     starting charge    7.98607, renormalised to    8.00000

     negative rho (up, down):  1.160E-04 0.000E+00
     Starting wfcs are random

     total cpu time spent up to now is       12.1 secs

     Self-consistent Calculation

     iteration #  1     ecut=    50.00 Ry     beta= 0.70
     Davidson diagonalization with overlap
     c_bands:  1 eigenvalues not converged
     c_bands:  2 eigenvalues not converged
     c_bands:  1 eigenvalues not converged
     c_bands:  4 eigenvalues not converged
     c_bands:  4 eigenvalues not converged
     c_bands:  4 eigenvalues not converged
     c_bands:  2 eigenvalues not converged
     c_bands:  2 eigenvalues not converged
     c_bands:  5 eigenvalues not converged
     c_bands:  5 eigenvalues not converged
     c_bands:  4 eigenvalues not converged
     c_bands:  4 eigenvalues not converged
     c_bands:  3 eigenvalues not converged
     c_bands:  2 eigenvalues not converged
     c_bands:  2 eigenvalues not converged
     c_bands:  5 eigenvalues not converged
     c_bands:  4 eigenvalues not converged
     c_bands:  4 eigenvalues not converged
     c_bands:  3 eigenvalues not converged
     c_bands:  3 eigenvalues not converged
     c_bands:  4 eigenvalues not converged
     c_bands:  3 eigenvalues not converged
     c_bands:  3 eigenvalues not converged
     c_bands:  3 eigenvalues not converged
     c_bands:  4 eigenvalues not converged
     c_bands:  3 eigenvalues not converged
     c_bands:  2 eigenvalues not converged
     ethr =  1.00E-06,  avg # of iterations = 22.2

     negative rho (up, down):  2.311E-05 0.000E+00

     total cpu time spent up to now is       12.8 secs

     total energy              =     -22.76014774 Ry
     estimated scf accuracy    <       0.19941704 Ry

     iteration #  2     ecut=    50.00 Ry     beta= 0.70
     Davidson diagonalization with overlap
     ethr =  2.49E-03,  avg # of iterations =  2.3

     negative rho (up, down):  2.973E-06 0.000E+00

     total cpu time spent up to now is       12.9 secs

     total energy              =     -22.79019514 Ry
     estimated scf accuracy    <       0.00234297 Ry

     iteration #  3     ecut=    50.00 Ry     beta= 0.70
     Davidson diagonalization with overlap
     c_bands:  1 eigenvalues not converged
     ethr =  2.93E-05,  avg # of iterations =  9.2

     total cpu time spent up to now is       13.1 secs

     total energy              =     -22.79059041 Ry
     estimated scf accuracy    <       0.00017339 Ry

     iteration #  4     ecut=    50.00 Ry     beta= 0.70
     Davidson diagonalization with overlap
     ethr =  2.17E-06,  avg # of iterations =  5.6

     total cpu time spent up to now is       13.3 secs

     total energy              =     -22.79060382 Ry
     estimated scf accuracy    <       0.00000118 Ry

     iteration #  5     ecut=    50.00 Ry     beta= 0.70
     Davidson diagonalization with overlap
     ethr =  1.48E-08,  avg # of iterations =  3.7

     total cpu time spent up to now is       13.4 secs

     total energy              =     -22.79060523 Ry
     estimated scf accuracy    <       0.00000004 Ry

     iteration #  6     ecut=    50.00 Ry     beta= 0.70
     Davidson diagonalization with overlap
     ethr =  4.73E-10,  avg # of iterations =  2.4

     total cpu time spent up to now is       13.5 secs

     total energy              =     -22.79060524 Ry
     estimated scf accuracy    <          9.9E-10 Ry

     iteration #  7     ecut=    50.00 Ry     beta= 0.70
     Davidson diagonalization with overlap
     ethr =  1.24E-11,  avg # of iterations =  3.3

     total cpu time spent up to now is       13.7 secs

     End of self-consistent calculation

          k = 0.0000 0.0000 0.0000 (  4459 PWs)   bands (ev):

   -23.8738 -11.9361  -7.2729  -7.2729  -0.9832  -0.2036   0.5838   0.9389

          k =-0.0000 0.0807 0.0000 (  4465 PWs)   bands (ev):

   -23.7677 -11.8080  -7.7004  -7.5001  -0.8391  -0.0574   0.7309   1.0855

          k =-0.0000 0.1615 0.0000 (  4489 PWs)   bands (ev):

   -23.4510 -11.4283  -8.8320  -8.0712  -0.4069   0.3806   1.1722   1.5247

          k =-0.0000 0.2422 0.0000 (  4471 PWs)   bands (ev):

   -22.9253 -10.8035 -10.3860  -8.7844   0.3130   1.1082   1.9077   2.2543

          k =-0.0000 0.3229 0.0000 (  4509 PWs)   bands (ev):

   -22.1953 -12.1342  -9.9484  -9.4827   1.3184   2.0909   2.7208   2.9353

          k =-0.0000 0.4036 0.0000 (  4519 PWs)   bands (ev):

   -21.2681 -13.9151 -10.0608  -8.8958   0.7871   2.6006   3.4569   3.6632

          k =-0.0000 0.4844 0.0000 (  4521 PWs)   bands (ev):

   -20.1589 -15.6294 -10.4704  -7.7336  -0.9918   3.4349   4.2060   5.0402

          k =-0.0000 0.5651 0.0000 (  4521 PWs)   bands (ev):

   -18.9403 -17.1596 -10.6807  -6.7607  -2.2943   3.3433   6.0244   6.8903

          k = 0.0699 0.1211 0.0000 (  4495 PWs)   bands (ev):

   -23.5565 -11.5542  -8.4266  -7.9526  -0.5509   0.2347   1.0251   1.3784

          k = 0.0699 0.2018 0.0000 (  4483 PWs)   bands (ev):

   -23.1353 -11.0516  -9.6788  -8.6871   0.0255   0.8180   1.6138   1.9633

          k = 0.0699 0.2825 0.0000 (  4485 PWs)   bands (ev):

   -22.5075 -11.2723 -10.3101  -9.4520   0.8888   1.6869   2.4963   2.8311

          k = 0.0699 0.3633 0.0000 (  4498 PWs)   bands (ev):

   -21.6787 -13.0053 -10.1205  -9.3520   1.6426   2.0358   2.8772   3.6678

          k = 0.0699 0.4440 0.0000 (  4508 PWs)   bands (ev):

   -20.6593 -14.7390 -10.6289  -8.2290  -0.1748   3.4475   4.0388   4.3113

          k = 0.0699 0.5247 0.0000 (  4519 PWs)   bands (ev):

   -19.4779 -16.3720 -10.9454  -7.0948  -1.7693   3.8507   5.1848   6.0226

          k = 0.0699 0.6054 0.0000 (  4518 PWs)   bands (ev):

   -18.4962 -17.5077 -11.0524  -6.4952  -2.5282   3.8015   7.0523   7.2083

          k = 0.1398 0.2422 0.0000 (  4485 PWs)   bands (ev):

   -22.6118 -10.7850 -10.4315  -9.6620   0.7458   1.5450   2.3497   2.6932

          k = 0.1398 0.3229 0.0000 (  4483 PWs)   bands (ev):

   -21.8854 -12.1883 -10.5759  -9.5836   1.7518   2.2026   2.5697   3.3796

          k = 0.1398 0.4036 0.0000 (  4501 PWs)   bands (ev):

   -20.9638 -13.7934 -11.2559  -8.5390   0.5029   3.0387   3.8569   4.6991

          k = 0.1398 0.4844 0.0000 (  4507 PWs)   bands (ev):

   -19.8642 -15.4206 -11.7038  -7.3776  -1.1540   4.5884   5.2108   5.4103

          k = 0.1398 0.5651 0.0000 (  4505 PWs)   bands (ev):

   -18.6613 -16.9048 -11.9287  -6.3824  -2.4148   5.0794   6.4290   7.1189

          k = 0.2097 0.3633 0.0000 (  4485 PWs)   bands (ev):

   -21.0660 -13.2045 -11.7625  -8.6445   0.7839   2.8975   3.6986   4.5559

          k = 0.2097 0.4440 0.0000 (  4491 PWs)   bands (ev):

   -20.0619 -14.4995 -12.5897  -7.5344  -0.7175   4.3176   5.0824   6.0222

          k = 0.2097 0.5247 0.0000 (  4499 PWs)   bands (ev):

   -18.9058 -15.9422 -13.0171  -6.3811  -2.1304   5.9881   6.5309   6.8783

          k = 0.2097 0.6054 0.0000 (  4494 PWs)   bands (ev):

   -17.9549 -17.0041 -13.1504  -5.7206  -2.8815   6.7984   7.1847   7.7652

          k = 0.2796 0.4844 0.0000 (  4477 PWs)   bands (ev):

   -18.9956 -15.2789 -13.7316  -6.3933  -1.9821   5.8523   6.2951   7.5866

          k = 0.2796 0.5651 0.0000 (  4488 PWs)   bands (ev):

   -17.8432 -16.3394 -14.2774  -5.2966  -3.1363   6.6524   7.5664   8.5455

          k = 0.3496 0.6054 0.0000 (  4473 PWs)   bands (ev):

   -16.8770 -16.8770 -14.9142  -4.1956  -4.1956   6.4526   8.7985   8.7992

     the Fermi energy is    -4.1956 ev

!    total energy              =     -22.79060524 Ry
     estimated scf accuracy    <          1.0E-11 Ry
     smearing contrib. (-TS)   =      -0.00005015 Ry
     internal energy E=F+TS    =     -22.79055509 Ry

     The total energy is F=E-TS. E is the sum of the following terms:
     one-electron contribution =    -391.07345246 Ry
     hartree contribution      =     196.16624748 Ry
     xc contribution           =      -7.03339260 Ry
     ewald contribution        =     179.15004248 Ry

     convergence has been achieved in   7 iterations

     Forces acting on atoms (cartesian axes, Ry/au):

     atom    1 type  1   force =     0.00000000    0.00000000    0.00000000
     atom    2 type  1   force =    -0.00000000   -0.00000000    0.00000000

     Total force =     0.000000     Total SCF correction =     0.000000


     Computing stress (Cartesian axis) and pressure

          total   stress  (Ry/bohr**3)                   (kbar)     P=       -8.79
  -0.00003500   0.00000000   0.00000000           -5.15        0.00        0.00
   0.00000000  -0.00003500   0.00000000            0.00       -5.15        0.00
   0.00000000   0.00000000  -0.00010933            0.00        0.00      -16.08


     Writing output data file ./work/LiC486.save/
 
     init_run     :      0.12s CPU      0.15s WALL (       2 calls)
     electrons    :     12.00s CPU     13.06s WALL (       9 calls)
     update_pot   :      0.09s CPU      0.10s WALL (       7 calls)
     forces       :      0.07s CPU      0.08s WALL (       9 calls)
     stress       :      0.21s CPU      0.22s WALL (       9 calls)

     Called by init_run:
     wfcinit      :      0.09s CPU      0.11s WALL (       2 calls)
     potinit      :      0.01s CPU      0.01s WALL (       2 calls)
     hinit0       :      0.01s CPU      0.01s WALL (       2 calls)

     Called by electrons:
     c_bands      :     10.45s CPU     11.23s WALL (      74 calls)
     sum_band     :      1.38s CPU      1.47s WALL (      74 calls)
     v_of_rho     :      0.14s CPU      0.15s WALL (      80 calls)
     mix_rho      :      0.02s CPU      0.03s WALL (      74 calls)

     Called by c_bands:
     init_us_2    :      0.09s CPU      0.10s WALL (    4536 calls)
     cegterg      :     10.21s CPU     10.95s WALL (    2001 calls)

     Called by *egterg:
     cdiaghg      :      0.93s CPU      1.00s WALL (   10430 calls)
     h_psi        :      8.60s CPU      9.24s WALL (   10757 calls)
     g_psi        :      0.02s CPU      0.03s WALL (    8702 calls)

     Called by h_psi:
     h_psi:calbec :      0.32s CPU      0.35s WALL (   10757 calls)
     vloc_psi     :      8.10s CPU      8.70s WALL (   10757 calls)
     add_vuspsi   :      0.08s CPU      0.09s WALL (   10757 calls)

     General routines
     calbec       :      0.36s CPU      0.38s WALL (   11972 calls)
     fft          :      0.13s CPU      0.14s WALL (     873 calls)
     ffts         :      0.01s CPU      0.01s WALL (      74 calls)
     fftw         :      8.86s CPU      9.50s WALL (  125140 calls)
 
     Parallel routines
     fft_scatt_xy :      0.58s CPU      0.62s WALL (  126087 calls)
     fft_scatt_yz :      5.21s CPU      5.59s WALL (  126087 calls)
 
     PWSCF        :     12.58s CPU     13.94s WALL

 
   This run was terminated on:  14:18:20  19Jan2024            

=------------------------------------------------------------------------------=
   JOB DONE.
=------------------------------------------------------------------------------=
