
     Program PWSCF v.6.7MaX starts on 19Jan2024 at 14:15:59 

     This program is part of the open-source Quantum ESPRESSO suite
     for quantum simulation of materials; please cite
         "P. Giannozzi et al., J. Phys.:Condens. Matter 21 395502 (2009);
         "P. Giannozzi et al., J. Phys.:Condens. Matter 29 465901 (2017);
          URL http://www.quantum-espresso.org", 
     in publications or presentations arising from this work. More details at
     http://www.quantum-espresso.org/quote

     Parallel version (MPI), running on    32 processors

     MPI processes distributed on     1 nodes
     R & G space division:  proc/nbgrp/npool/nimage =      32
     Waiting for input...
     Reading input from standard input

     Current dimensions of program PWSCF are:
     Max number of different atomic species (ntypx) = 10
     Max number of k-points (npk) =  40000
     Max angular momentum in pseudopotentials (lmaxx) =  3
     Message from routine read_pp_mesh:
     mesh size missing, using the one in header

     Subspace diagonalization in iterative solution of the eigenvalue problem:
     a serial algorithm will be used

 
     Parallelization info
     --------------------
     sticks:   dense  smooth     PW     G-vecs:    dense   smooth      PW
     Min           9       9      3                 1165     1165     183
     Max          10      10      4                 1210     1210     223
     Sum         313     313     97                38199    38199    6691
 


     bravais-lattice index     =            4
     lattice parameter (alat)  =       4.7700  a.u.
     unit-cell volume          =     798.0359 (a.u.)^3
     number of atoms/cell      =            2
     number of atomic types    =            1
     number of electrons       =         8.00
     number of Kohn-Sham states=            8
     kinetic-energy cutoff     =      50.0000  Ry
     charge density cutoff     =     200.0000  Ry
     scf convergence threshold =      1.0E-08
     mixing beta               =       0.7000
     number of iterations used =            8  plain     mixing
     energy convergence thresh.=      1.0E-04
     force convergence thresh. =      1.0E-08
     press convergence thresh. =      1.0E-03
     Exchange-correlation= PBE
                           (   1   4   3   4   0   0   0)
     nstep                     =           50


     celldm(1)=   4.770000  celldm(2)=   0.000000  celldm(3)=   8.490566
     celldm(4)=   0.000000  celldm(5)=   0.000000  celldm(6)=   0.000000

     crystal axes: (cart. coord. in units of alat)
               a(1) = (   1.000000   0.000000   0.000000 )  
               a(2) = (  -0.500000   0.866025   0.000000 )  
               a(3) = (   0.000000   0.000000   8.490566 )  

     reciprocal axes: (cart. coord. in units 2 pi/alat)
               b(1) = (  1.000000  0.577350  0.000000 )  
               b(2) = (  0.000000  1.154701  0.000000 )  
               b(3) = (  0.000000  0.000000  0.117778 )  


     PseudoPot. # 1 for C  read from file:
     /home/yhkim/qe-6.7/pseudo/ONCV1/1.2/C_ONCV_PBE-1.2.upf
     MD5 check sum: 1a5f83a7b1f58d24996abe00ed223ac6
     Pseudo is Norm-conserving, Zval =  4.0
     Generated using ONCVPSP code by D. R. Hamann
     Using radial grid of  602 points,  4 beta functions with: 
                l(1) =   0
                l(2) =   0
                l(3) =   1
                l(4) =   1

     atomic species   valence    mass     pseudopotential
        C              4.00    12.01070     C ( 1.00)

     24 Sym. Ops., with inversion, found



   Cartesian axes

     site n.     atom                  positions (alat units)
         1           C   tau(   1) = (  -0.0000000   0.5773503   4.2452830  )
         2           C   tau(   2) = (   0.5000000   0.2886751   4.2452830  )

     number of k points=    27  Methfessel-Paxton smearing, width (Ry)=  0.0100
                       cart. coord. in units 2pi/alat
        k(    1) = (   0.0000000   0.0000000   0.0000000), wk =   0.0088889
        k(    2) = (   0.0000000   0.0769800   0.0000000), wk =   0.0533333
        k(    3) = (   0.0000000   0.1539601   0.0000000), wk =   0.0533333
        k(    4) = (   0.0000000   0.2309401   0.0000000), wk =   0.0533333
        k(    5) = (   0.0000000   0.3079201   0.0000000), wk =   0.0533333
        k(    6) = (   0.0000000   0.3849002   0.0000000), wk =   0.0533333
        k(    7) = (   0.0000000   0.4618802   0.0000000), wk =   0.0533333
        k(    8) = (   0.0000000   0.5388603   0.0000000), wk =   0.0533333
        k(    9) = (   0.0666667   0.1154701   0.0000000), wk =   0.0533333
        k(   10) = (   0.0666667   0.1924501   0.0000000), wk =   0.1066667
        k(   11) = (   0.0666667   0.2694301   0.0000000), wk =   0.1066667
        k(   12) = (   0.0666667   0.3464102   0.0000000), wk =   0.1066667
        k(   13) = (   0.0666667   0.4233902   0.0000000), wk =   0.1066667
        k(   14) = (   0.0666667   0.5003702   0.0000000), wk =   0.1066667
        k(   15) = (   0.0666667   0.5773503   0.0000000), wk =   0.0533333
        k(   16) = (   0.1333333   0.2309401   0.0000000), wk =   0.0533333
        k(   17) = (   0.1333333   0.3079201   0.0000000), wk =   0.1066667
        k(   18) = (   0.1333333   0.3849002   0.0000000), wk =   0.1066667
        k(   19) = (   0.1333333   0.4618802   0.0000000), wk =   0.1066667
        k(   20) = (   0.1333333   0.5388603   0.0000000), wk =   0.1066667
        k(   21) = (   0.2000000   0.3464102   0.0000000), wk =   0.0533333
        k(   22) = (   0.2000000   0.4233902   0.0000000), wk =   0.1066667
        k(   23) = (   0.2000000   0.5003702   0.0000000), wk =   0.1066667
        k(   24) = (   0.2000000   0.5773503   0.0000000), wk =   0.0533333
        k(   25) = (   0.2666667   0.4618802   0.0000000), wk =   0.0533333
        k(   26) = (   0.2666667   0.5388603   0.0000000), wk =   0.1066667
        k(   27) = (   0.3333333   0.5773503   0.0000000), wk =   0.0177778

     Dense  grid:    38199 G-vectors     FFT dimensions: (  24,  24, 192)

     Estimated max dynamical RAM per process >       2.01 MB

     Estimated total dynamical RAM >      64.37 MB
 ----2D----2D----2D----2D----2D----2D----2D----2D----2D----2D----2D----2D
  The code is running with the 2D cutoff
  Please refer to:
  Sohier, T., Calandra, M., & Mauri, F. (2017), 
  Density functional perturbation theory for gated two-dimensional heterostructu
 res:
  Theoretical developments and application to flexural phonons in graphene.
  Physical Review B, 96(7), 75448. https://doi.org/10.1103/PhysRevB.96.075448
 ----2D----2D----2D----2D----2D----2D----2D----2D----2D----2D----2D----2D

     Initial potential from superposition of free atoms

     starting charge    7.98607, renormalised to    8.00000

     negative rho (up, down):  1.197E-04 0.000E+00
     Starting wfcs are random

     total cpu time spent up to now is        0.1 secs

     Self-consistent Calculation

     iteration #  1     ecut=    50.00 Ry     beta= 0.70
     Davidson diagonalization with overlap
     ethr =  1.00E-02,  avg # of iterations = 11.3

     negative rho (up, down):  2.575E-07 0.000E+00

     total cpu time spent up to now is        0.5 secs

     total energy              =     -22.76336653 Ry
     estimated scf accuracy    <       0.13562248 Ry

     iteration #  2     ecut=    50.00 Ry     beta= 0.70
     Davidson diagonalization with overlap
     ethr =  1.70E-03,  avg # of iterations =  2.0

     total cpu time spent up to now is        0.7 secs

     total energy              =     -22.78483223 Ry
     estimated scf accuracy    <       0.00209360 Ry

     iteration #  3     ecut=    50.00 Ry     beta= 0.70
     Davidson diagonalization with overlap
     c_bands:  1 eigenvalues not converged
     ethr =  2.62E-05,  avg # of iterations = 10.2

     total cpu time spent up to now is        0.9 secs

     total energy              =     -22.78592349 Ry
     estimated scf accuracy    <       0.00012419 Ry

     iteration #  4     ecut=    50.00 Ry     beta= 0.70
     Davidson diagonalization with overlap
     c_bands:  1 eigenvalues not converged
     c_bands:  1 eigenvalues not converged
     ethr =  1.55E-06,  avg # of iterations =  7.0

     total cpu time spent up to now is        1.1 secs

     total energy              =     -22.78596018 Ry
     estimated scf accuracy    <       0.00000195 Ry

     iteration #  5     ecut=    50.00 Ry     beta= 0.70
     Davidson diagonalization with overlap
     ethr =  2.43E-08,  avg # of iterations =  4.0

     total cpu time spent up to now is        1.3 secs

     total energy              =     -22.78596308 Ry
     estimated scf accuracy    <       0.00000009 Ry

     iteration #  6     ecut=    50.00 Ry     beta= 0.70
     Davidson diagonalization with overlap
     ethr =  1.14E-09,  avg # of iterations =  2.1

     total cpu time spent up to now is        1.4 secs

     End of self-consistent calculation

          k = 0.0000 0.0000 0.0000 (  4831 PWs)   bands (ev):

   -23.4300 -11.6051  -7.5391  -7.5391  -0.9655  -0.2008   0.5925   0.9466

          k = 0.0000 0.0770 0.0000 (  4823 PWs)   bands (ev):

   -23.3294 -11.4870  -7.9547  -7.7463  -0.8294  -0.0631   0.7314   1.0847

          k = 0.0000 0.1540 0.0000 (  4811 PWs)   bands (ev):

   -23.0286 -11.1329  -9.0496  -8.2708  -0.4210   0.3497   1.1480   1.4986

          k = 0.0000 0.2309 0.0000 (  4797 PWs)   bands (ev):

   -22.5296 -10.5512 -10.5446  -8.9277   0.2590   1.0349   1.8420   2.1856

          k = 0.0000 0.3079 0.0000 (  4781 PWs)   bands (ev):

   -21.8369 -12.2107  -9.7566  -9.5695   1.2082   1.8215   2.1093   2.7928

          k = 0.0000 0.3849 0.0000 (  4765 PWs)   bands (ev):

   -20.9590 -13.9023 -10.1049  -8.7823   0.2036   2.3922   2.6460   3.2420

          k = 0.0000 0.4619 0.0000 (  4748 PWs)   bands (ev):

   -19.9154 -15.5233 -10.4840  -7.7092  -1.4172   2.3790   3.9185   4.7327

          k = 0.0000 0.5389 0.0000 (  4766 PWs)   bands (ev):

   -18.8061 -16.9320 -10.6788  -6.8208  -2.6001   2.2643   5.6428   6.4661

          k = 0.0667 0.1155 0.0000 (  4801 PWs)   bands (ev):

   -23.1287 -11.2501  -8.6612  -8.1584  -0.5570   0.2122   1.0091   1.3608

          k = 0.0667 0.1925 0.0000 (  4790 PWs)   bands (ev):

   -22.7288 -10.7822  -9.8723  -8.8348  -0.0126   0.7617   1.5648   1.9120

          k = 0.0667 0.2694 0.0000 (  4792 PWs)   bands (ev):

   -22.1329 -11.3957 -10.0932  -9.5456   0.8027   1.5778   2.3972   2.6115

          k = 0.0667 0.3464 0.0000 (  4769 PWs)   bands (ev):

   -21.3473 -13.0441 -10.1668  -9.2040   0.9782   1.8848   2.6923   3.1967

          k = 0.0667 0.4234 0.0000 (  4745 PWs)   bands (ev):

   -20.3843 -14.6869 -10.6408  -8.1640  -0.6809   2.9133   3.2651   4.0473

          k = 0.0667 0.5004 0.0000 (  4748 PWs)   bands (ev):

   -19.2824 -16.2196 -10.9353  -7.1211  -2.1324   2.7618   4.8490   5.6528

          k = 0.0667 0.5774 0.0000 (  4754 PWs)   bands (ev):

   -18.4376 -17.2118 -11.0354  -6.5767  -2.8185   2.7034   6.6007   6.7644

          k = 0.1333 0.2309 0.0000 (  4801 PWs)   bands (ev):

   -22.2319 -10.9487 -10.2061  -9.7324   0.6675   1.4465   2.2594   2.6010

          k = 0.1333 0.3079 0.0000 (  4767 PWs)   bands (ev):

   -21.5428 -12.2917 -10.5864  -9.4178   1.4722   1.6171   2.4037   3.2308

          k = 0.1333 0.3849 0.0000 (  4754 PWs)   bands (ev):

   -20.6705 -13.8106 -11.2305  -8.4497  -0.0793   2.8309   3.6199   4.2665

          k = 0.1333 0.4619 0.0000 (  4752 PWs)   bands (ev):

   -19.6361 -15.3432 -11.6568  -7.3771  -1.5903   4.0313   4.3347   5.0765

          k = 0.1333 0.5389 0.0000 (  4752 PWs)   bands (ev):

   -18.5387 -16.7062 -11.8699  -6.4668  -2.7383   3.9342   6.0199   6.6581

          k = 0.2000 0.3464 0.0000 (  4759 PWs)   bands (ev):

   -20.7668 -13.2929 -11.6783  -8.5470   0.1633   2.6979   3.4720   4.3406

          k = 0.2000 0.4234 0.0000 (  4757 PWs)   bands (ev):

   -19.8191 -14.5206 -12.4612  -7.5207  -1.2140   4.0363   4.7684   5.7085

          k = 0.2000 0.5004 0.0000 (  4757 PWs)   bands (ev):

   -18.7398 -15.8588 -12.8807  -6.4578  -2.5069   5.5456   5.7284   6.1111

          k = 0.2000 0.5774 0.0000 (  4742 PWs)   bands (ev):

   -17.9100 -16.7884 -13.0117  -5.8545  -3.1900   5.5832   6.7127   7.2390

          k = 0.2667 0.4619 0.0000 (  4745 PWs)   bands (ev):

   -18.8178 -15.3073 -13.4922  -6.4671  -2.3864   5.4777   5.8955   7.1943

          k = 0.2667 0.5389 0.0000 (  4745 PWs)   bands (ev):

   -17.7576 -16.2867 -14.0057  -5.4573  -3.4494   6.2494   7.0240   7.3505

          k = 0.3333 0.5774 0.0000 (  4758 PWs)   bands (ev):

   -16.8616 -16.8616 -14.5278  -4.4380  -4.4380   6.0825   7.9227   7.9228

     the Fermi energy is    -4.4380 ev

!    total energy              =     -22.78596310 Ry
     estimated scf accuracy    <          2.0E-09 Ry
     smearing contrib. (-TS)   =      -0.00005015 Ry
     internal energy E=F+TS    =     -22.78591295 Ry

     The total energy is F=E-TS. E is the sum of the following terms:
     one-electron contribution =    -368.92722488 Ry
     hartree contribution      =     185.03770780 Ry
     xc contribution           =      -6.91131712 Ry
     ewald contribution        =     168.01492125 Ry

     convergence has been achieved in   6 iterations

     Forces acting on atoms (cartesian axes, Ry/au):

     atom    1 type  1   force =     0.00000000    0.00000000    0.00000000
     atom    2 type  1   force =     0.00000000    0.00000000    0.00000000

     Total force =     0.000000     Total SCF correction =     0.000000


     Computing stress (Cartesian axis) and pressure

          total   stress  (Ry/bohr**3)                   (kbar)     P=      -41.37
  -0.00037155   0.00000000   0.00000000          -54.66        0.00        0.00
   0.00000000  -0.00037155   0.00000000            0.00      -54.66        0.00
   0.00000000   0.00000000  -0.00010054            0.00        0.00      -14.79


     BFGS Geometry Optimization
     Energy error            =      0.0E+00
     Gradient error          =      0.0E+00
     Cell gradient error     =      3.7E-04


     number of scf cycles    =   1
     number of bfgs steps    =   0

     enthalpy new            =     -22.7859631023 Ry

     new trust radius        =       0.0524804632 bohr
     new conv_thr            =       0.0000000100 Ry

     new unit-cell volume =    783.27924 a.u.^3 (   116.07001 Ang^3 )
     density =      0.34366 g/cm^3

CELL_PARAMETERS (alat=  4.77000000)
   0.990711267   0.000000000   0.000000000
  -0.495355634   0.857981125   0.000000000
   0.000000000   0.000000000   8.490566038

ATOMIC_POSITIONS (crystal)
C             0.3333333333        0.6666666667        0.5000000000
C             0.6666666667        0.3333333333        0.5000000000



     Writing output data file ./work/LiC477.save/
     NEW-OLD atomic charge density approx. for the potential

     negative rho (up, down):  4.713E-06 0.000E+00
     extrapolated charge    7.84955, renormalised to    8.00000

     total cpu time spent up to now is        1.5 secs

     Self-consistent Calculation

     iteration #  1     ecut=    50.00 Ry     beta= 0.70
     Davidson diagonalization with overlap
     c_bands:  1 eigenvalues not converged
     c_bands:  1 eigenvalues not converged
     c_bands:  2 eigenvalues not converged
     c_bands:  3 eigenvalues not converged
     c_bands:  1 eigenvalues not converged
     c_bands:  2 eigenvalues not converged
     c_bands:  1 eigenvalues not converged
     c_bands:  1 eigenvalues not converged
     c_bands:  1 eigenvalues not converged
     ethr =  1.00E-06,  avg # of iterations = 15.9

     negative rho (up, down):  2.879E-07 0.000E+00

     total cpu time spent up to now is        1.9 secs

     total energy              =     -22.78002567 Ry
     estimated scf accuracy    <       0.00561268 Ry

     iteration #  2     ecut=    50.00 Ry     beta= 0.70
     Davidson diagonalization with overlap
     ethr =  7.02E-05,  avg # of iterations = 10.0

     negative rho (up, down):  4.232E-08 0.000E+00

     total cpu time spent up to now is        2.2 secs

     total energy              =     -22.79095750 Ry
     estimated scf accuracy    <       0.00512789 Ry

     iteration #  3     ecut=    50.00 Ry     beta= 0.70
     Davidson diagonalization with overlap
     ethr =  6.41E-05,  avg # of iterations =  1.0

     total cpu time spent up to now is        2.3 secs

     total energy              =     -22.79054555 Ry
     estimated scf accuracy    <       0.00114187 Ry

     iteration #  4     ecut=    50.00 Ry     beta= 0.70
     Davidson diagonalization with overlap
     ethr =  1.43E-05,  avg # of iterations =  2.7

     total cpu time spent up to now is        2.4 secs

     total energy              =     -22.79068231 Ry
     estimated scf accuracy    <       0.00003961 Ry

     iteration #  5     ecut=    50.00 Ry     beta= 0.70
     Davidson diagonalization with overlap
     ethr =  4.95E-07,  avg # of iterations =  4.6

     total cpu time spent up to now is        2.6 secs

     total energy              =     -22.79068581 Ry
     estimated scf accuracy    <       0.00003717 Ry

     iteration #  6     ecut=    50.00 Ry     beta= 0.70
     Davidson diagonalization with overlap
     ethr =  4.65E-07,  avg # of iterations =  1.0

     total cpu time spent up to now is        2.7 secs

     total energy              =     -22.79066137 Ry
     estimated scf accuracy    <       0.00003738 Ry

     iteration #  7     ecut=    50.00 Ry     beta= 0.70
     Davidson diagonalization with overlap
     ethr =  4.65E-07,  avg # of iterations =  3.3

     total cpu time spent up to now is        2.8 secs

     total energy              =     -22.79067767 Ry
     estimated scf accuracy    <       0.00000732 Ry

     iteration #  8     ecut=    50.00 Ry     beta= 0.70
     Davidson diagonalization with overlap
     ethr =  9.15E-08,  avg # of iterations =  2.0

     total cpu time spent up to now is        3.0 secs

     total energy              =     -22.79068023 Ry
     estimated scf accuracy    <       0.00002428 Ry

     iteration #  9     ecut=    50.00 Ry     beta= 0.70
     Davidson diagonalization with overlap
     ethr =  9.15E-08,  avg # of iterations =  1.0

     total cpu time spent up to now is        3.1 secs

     total energy              =     -22.79067480 Ry
     estimated scf accuracy    <       0.00002937 Ry

     iteration # 10     ecut=    50.00 Ry     beta= 0.70
     Davidson diagonalization with overlap
     ethr =  9.15E-08,  avg # of iterations =  1.0

     total cpu time spent up to now is        3.2 secs

     total energy              =     -22.79066911 Ry
     estimated scf accuracy    <       0.00001469 Ry

     iteration # 11     ecut=    50.00 Ry     beta= 0.70
     Davidson diagonalization with overlap
     ethr =  9.15E-08,  avg # of iterations =  2.0

     total cpu time spent up to now is        3.3 secs

     total energy              =     -22.79066915 Ry
     estimated scf accuracy    <       0.00000175 Ry

     iteration # 12     ecut=    50.00 Ry     beta= 0.70
     Davidson diagonalization with overlap
     ethr =  2.18E-08,  avg # of iterations =  1.9

     total cpu time spent up to now is        3.4 secs

     total energy              =     -22.79066940 Ry
     estimated scf accuracy    <       0.00000016 Ry

     iteration # 13     ecut=    50.00 Ry     beta= 0.70
     Davidson diagonalization with overlap
     ethr =  1.97E-09,  avg # of iterations =  1.5

     total cpu time spent up to now is        3.5 secs

     total energy              =     -22.79066927 Ry
     estimated scf accuracy    <       0.00000037 Ry

     iteration # 14     ecut=    50.00 Ry     beta= 0.70
     Davidson diagonalization with overlap
     ethr =  1.97E-09,  avg # of iterations =  2.0

     total cpu time spent up to now is        3.6 secs

     total energy              =     -22.79066925 Ry
     estimated scf accuracy    <       0.00000008 Ry

     iteration # 15     ecut=    50.00 Ry     beta= 0.70
     Davidson diagonalization with overlap
     ethr =  9.49E-10,  avg # of iterations =  2.0

     total cpu time spent up to now is        3.7 secs

     End of self-consistent calculation

          k = 0.0000 0.0000 0.0000 (  4831 PWs)   bands (ev):

   -23.5711 -11.7096  -7.4604  -7.4604  -0.9709  -0.2007   0.5916   0.9458

          k =-0.0000 0.0777 0.0000 (  4823 PWs)   bands (ev):

   -23.4689 -11.5887  -7.8792  -7.6736  -0.8322  -0.0604   0.7331   1.0865

          k =-0.0000 0.1554 0.0000 (  4811 PWs)   bands (ev):

   -23.1630 -11.2263  -8.9853  -8.2132  -0.4163   0.3604   1.1576   1.5085

          k =-0.0000 0.2331 0.0000 (  4797 PWs)   bands (ev):

   -22.6555 -10.6309 -10.4990  -8.8880   0.2764   1.0591   1.8647   2.2090

          k =-0.0000 0.3108 0.0000 (  4781 PWs)   bands (ev):

   -21.9507 -12.1891  -9.8172  -9.5465   1.2434   1.9477   2.2652   2.8494

          k =-0.0000 0.3885 0.0000 (  4765 PWs)   bands (ev):

   -21.0570 -13.9077 -10.0954  -8.8186   0.3885   2.4678   2.9628   3.3109

          k =-0.0000 0.4662 0.0000 (  4748 PWs)   bands (ev):

   -19.9922 -15.5579 -10.4837  -7.7171  -1.2819   2.7178   4.0078   4.8311

          k =-0.0000 0.5439 0.0000 (  4766 PWs)   bands (ev):

   -18.8480 -17.0057 -10.6833  -6.8024  -2.5024   2.6081   5.7637   6.6015

          k = 0.0673 0.1166 0.0000 (  4801 PWs)   bands (ev):

   -23.2648 -11.3463  -8.5915  -8.0980  -0.5549   0.2203   1.0161   1.3680

          k = 0.0673 0.1943 0.0000 (  4790 PWs)   bands (ev):

   -22.8581 -10.8674  -9.8154  -8.7928  -0.0003   0.7805   1.5822   1.9299

          k = 0.0673 0.2720 0.0000 (  4792 PWs)   bands (ev):

   -22.2520 -11.3597 -10.1619  -9.5210   0.8302   1.6136   2.4305   2.7450

          k = 0.0673 0.3497 0.0000 (  4769 PWs)   bands (ev):

   -21.4525 -13.0336 -10.1567  -9.2510   1.1888   1.9329   2.7512   3.4934

          k = 0.0673 0.4274 0.0000 (  4745 PWs)   bands (ev):

   -20.4713 -14.7044 -10.6414  -8.1845  -0.5206   3.1970   3.3988   4.1318

          k = 0.0673 0.5051 0.0000 (  4748 PWs)   bands (ev):

   -19.3437 -16.2690 -10.9425  -7.1127  -2.0171   3.1092   4.9551   5.7710

          k = 0.0673 0.5828 0.0000 (  4754 PWs)   bands (ev):

   -18.4574 -17.3049 -11.0448  -6.5512  -2.7258   3.0531   6.7440   6.9053

          k = 0.1346 0.2331 0.0000 (  4801 PWs)   bands (ev):

   -22.3527 -10.9000 -10.2776  -9.7147   0.6926   1.4786   2.2899   2.6309

          k = 0.1346 0.3108 0.0000 (  4767 PWs)   bands (ev):

   -21.6516 -12.2609 -10.5878  -9.4702   1.6600   1.7040   2.4559   3.2798

          k = 0.1346 0.3885 0.0000 (  4754 PWs)   bands (ev):

   -20.7634 -13.8063 -11.2430  -8.4779   0.1054   2.8970   3.6960   4.5267

          k = 0.1346 0.4662 0.0000 (  4752 PWs)   bands (ev):

   -19.7080 -15.3686 -11.6762  -7.3771  -1.4516   4.3198   4.5026   5.1831

          k = 0.1346 0.5439 0.0000 (  4752 PWs)   bands (ev):

   -18.5770 -16.7699 -11.8927  -6.4401  -2.6357   4.2988   6.1495   6.8047

          k = 0.2019 0.3497 0.0000 (  4759 PWs)   bands (ev):

   -20.8616 -13.2666 -11.7096  -8.5778   0.3593   2.7614   3.5447   4.4108

          k = 0.2019 0.4274 0.0000 (  4757 PWs)   bands (ev):

   -19.8958 -14.5148 -12.5065  -7.5253  -1.0570   4.1257   4.8686   5.8173

          k = 0.2019 0.5051 0.0000 (  4757 PWs)   bands (ev):

   -18.7919 -15.8855 -12.9289  -6.4334  -2.3877   5.7129   6.0680   6.2445

          k = 0.2019 0.5828 0.0000 (  4742 PWs)   bands (ev):

   -17.9254 -16.8551 -13.0605  -5.8121  -3.0921   5.9699   6.8620   7.4072

          k = 0.2692 0.4662 0.0000 (  4745 PWs)   bands (ev):

   -18.8738 -15.2997 -13.5719  -6.4440  -2.2587   5.5968   6.0224   7.3129

          k = 0.2692 0.5439 0.0000 (  4745 PWs)   bands (ev):

   -17.7846 -16.3033 -14.0964  -5.4066  -3.3501   6.3772   7.2086   7.7241

          k = 0.3365 0.5828 0.0000 (  4758 PWs)   bands (ev):

   -16.8679 -16.8679 -14.6520  -4.3616  -4.3616   6.2001   8.2139   8.2139

     the Fermi energy is    -4.3616 ev

!    total energy              =     -22.79066926 Ry
     estimated scf accuracy    <          9.2E-10 Ry
     smearing contrib. (-TS)   =      -0.00005015 Ry
     internal energy E=F+TS    =     -22.79061911 Ry

     The total energy is F=E-TS. E is the sum of the following terms:
     one-electron contribution =    -375.95460830 Ry
     hartree contribution      =     188.56870127 Ry
     xc contribution           =      -6.95037497 Ry
     ewald contribution        =     171.54566289 Ry

     convergence has been achieved in  15 iterations

     Forces acting on atoms (cartesian axes, Ry/au):

     atom    1 type  1   force =     0.00000000    0.00000000    0.00000000
     atom    2 type  1   force =     0.00000000    0.00000000    0.00000000

     Total force =     0.000000     Total SCF correction =     0.000000


     Computing stress (Cartesian axis) and pressure

          total   stress  (Ry/bohr**3)                   (kbar)     P=      -30.84
  -0.00026449   0.00000000   0.00000000          -38.91        0.00        0.00
   0.00000000  -0.00026449   0.00000000            0.00      -38.91        0.00
   0.00000000   0.00000000  -0.00009991            0.00        0.00      -14.70

     Energy error            =      4.7E-03
     Gradient error          =      0.0E+00
     Cell gradient error     =      2.6E-04


     number of scf cycles    =   2
     number of bfgs steps    =   1

     enthalpy old            =     -22.7859631023 Ry
     enthalpy new            =     -22.7906692554 Ry

     CASE: enthalpy_new < enthalpy_old

     new trust radius        =       0.0577285095 bohr
     new conv_thr            =            1.0E-10 Ry

     new unit-cell volume =    767.20601 a.u.^3 (   113.68820 Ang^3 )
     density =      0.35086 g/cm^3

CELL_PARAMETERS (alat=  4.77000000)
   0.980493661   0.000000000   0.000000000
  -0.490246831   0.849132419   0.000000000
   0.000000000   0.000000000   8.490566038

ATOMIC_POSITIONS (crystal)
C             0.3333333333        0.6666666667        0.5000000000
C             0.6666666667        0.3333333333        0.5000000000



     Writing output data file ./work/LiC477.save/
     NEW-OLD atomic charge density approx. for the potential

     negative rho (up, down):  1.651E-06 0.000E+00
     extrapolated charge    7.83269, renormalised to    8.00000

     total cpu time spent up to now is        3.8 secs

     Self-consistent Calculation

     iteration #  1     ecut=    50.00 Ry     beta= 0.70
     Davidson diagonalization with overlap
     c_bands:  3 eigenvalues not converged
     c_bands:  3 eigenvalues not converged
     c_bands:  1 eigenvalues not converged
     c_bands:  2 eigenvalues not converged
     c_bands:  1 eigenvalues not converged
     c_bands:  1 eigenvalues not converged
     c_bands:  1 eigenvalues not converged
     ethr =  1.00E-06,  avg # of iterations = 15.7

     negative rho (up, down):  3.016E-08 0.000E+00

     total cpu time spent up to now is        4.3 secs

     total energy              =     -22.78076680 Ry
     estimated scf accuracy    <       0.00689620 Ry

     iteration #  2     ecut=    50.00 Ry     beta= 0.70
     Davidson diagonalization with overlap
     ethr =  8.62E-05,  avg # of iterations =  9.5

     total cpu time spent up to now is        4.5 secs

     total energy              =     -22.79425542 Ry
     estimated scf accuracy    <       0.00634691 Ry

     iteration #  3     ecut=    50.00 Ry     beta= 0.70
     Davidson diagonalization with overlap
     ethr =  7.93E-05,  avg # of iterations =  1.1

     total cpu time spent up to now is        4.6 secs

     total energy              =     -22.79373520 Ry
     estimated scf accuracy    <       0.00141398 Ry

     iteration #  4     ecut=    50.00 Ry     beta= 0.70
     Davidson diagonalization with overlap
     ethr =  1.77E-05,  avg # of iterations =  3.0

     total cpu time spent up to now is        4.8 secs

     total energy              =     -22.79391058 Ry
     estimated scf accuracy    <       0.00004115 Ry

     iteration #  5     ecut=    50.00 Ry     beta= 0.70
     Davidson diagonalization with overlap
     ethr =  5.14E-07,  avg # of iterations =  3.5

     total cpu time spent up to now is        4.9 secs

     total energy              =     -22.79391901 Ry
     estimated scf accuracy    <       0.00003592 Ry

     iteration #  6     ecut=    50.00 Ry     beta= 0.70
     Davidson diagonalization with overlap
     ethr =  4.49E-07,  avg # of iterations =  1.0

     negative rho (up, down):  2.493E-08 0.000E+00

     total cpu time spent up to now is        5.0 secs

     total energy              =     -22.79395014 Ry
     estimated scf accuracy    <       0.00004452 Ry

     iteration #  7     ecut=    50.00 Ry     beta= 0.70
     Davidson diagonalization with overlap
     ethr =  4.49E-07,  avg # of iterations =  2.0

     total cpu time spent up to now is        5.1 secs

     total energy              =     -22.79389352 Ry
     estimated scf accuracy    <       0.00015746 Ry

     iteration #  8     ecut=    50.00 Ry     beta= 0.70
     Davidson diagonalization with overlap
     ethr =  4.49E-07,  avg # of iterations =  2.0

     total cpu time spent up to now is        5.3 secs

     total energy              =     -22.79389673 Ry
     estimated scf accuracy    <       0.00001894 Ry

     iteration #  9     ecut=    50.00 Ry     beta= 0.70
     Davidson diagonalization with overlap
     ethr =  2.37E-07,  avg # of iterations =  2.0

     total cpu time spent up to now is        5.4 secs

     total energy              =     -22.79389902 Ry
     estimated scf accuracy    <       0.00000008 Ry

     iteration # 10     ecut=    50.00 Ry     beta= 0.70
     Davidson diagonalization with overlap
     ethr =  9.95E-10,  avg # of iterations =  3.6

     total cpu time spent up to now is        5.5 secs

     total energy              =     -22.79389902 Ry
     estimated scf accuracy    <       0.00000019 Ry

     iteration # 11     ecut=    50.00 Ry     beta= 0.70
     Davidson diagonalization with overlap
     ethr =  9.95E-10,  avg # of iterations =  2.0

     total cpu time spent up to now is        5.7 secs

     total energy              =     -22.79389903 Ry
     estimated scf accuracy    <       0.00000002 Ry

     iteration # 12     ecut=    50.00 Ry     beta= 0.70
     Davidson diagonalization with overlap
     ethr =  2.88E-10,  avg # of iterations =  1.3

     total cpu time spent up to now is        5.8 secs

     total energy              =     -22.79389903 Ry
     estimated scf accuracy    <          1.6E-09 Ry

     iteration # 13     ecut=    50.00 Ry     beta= 0.70
     Davidson diagonalization with overlap
     ethr =  1.99E-11,  avg # of iterations =  2.0

     total cpu time spent up to now is        5.9 secs

     End of self-consistent calculation

          k = 0.0000 0.0000 0.0000 (  4831 PWs)   bands (ev):

   -23.7285 -11.8277  -7.3681  -7.3681  -0.9766  -0.2004   0.5913   0.9454

          k =-0.0000 0.0785 0.0000 (  4823 PWs)   bands (ev):

   -23.6244 -11.7036  -7.7910  -7.5884  -0.8352  -0.0570   0.7357   1.0892

          k =-0.0000 0.1570 0.0000 (  4811 PWs)   bands (ev):

   -23.3127 -11.3319  -8.9103  -8.1451  -0.4106   0.3728   1.1691   1.5203

          k =-0.0000 0.2355 0.0000 (  4797 PWs)   bands (ev):

   -22.7958 -10.7210 -10.4456  -8.8404   0.2963   1.0867   1.8911   2.2361

          k =-0.0000 0.3140 0.0000 (  4781 PWs)   bands (ev):

   -22.0776 -12.1629  -9.8856  -9.5179   1.2835   2.0348   2.4961   2.8988

          k =-0.0000 0.3926 0.0000 (  4765 PWs)   bands (ev):

   -21.1661 -13.9118 -10.0821  -8.8594   0.5975   2.5397   3.3335   3.3893

          k =-0.0000 0.4711 0.0000 (  4748 PWs)   bands (ev):

   -20.0778 -15.5948 -10.4809  -7.7258  -1.1292   3.0996   4.1112   4.9428

          k =-0.0000 0.5496 0.0000 (  4766 PWs)   bands (ev):

   -18.8945 -17.0865 -10.6858  -6.7810  -2.3925   2.9978   5.9013   6.7550

          k = 0.0680 0.1178 0.0000 (  4801 PWs)   bands (ev):

   -23.4165 -11.4551  -8.5102  -8.0266  -0.5521   0.2297   1.0247   1.3767

          k = 0.0680 0.1963 0.0000 (  4790 PWs)   bands (ev):

   -23.0021 -10.9637  -9.7492  -8.7424   0.0140   0.8020   1.6026   1.9507

          k = 0.0680 0.2748 0.0000 (  4792 PWs)   bands (ev):

   -22.3846 -11.3173 -10.2396  -9.4903   0.8617   1.6541   2.4689   2.7977

          k = 0.0680 0.3533 0.0000 (  4769 PWs)   bands (ev):

   -21.5696 -13.0201 -10.1425  -9.3040   1.4266   1.9877   2.8188   3.6153

          k = 0.0680 0.4318 0.0000 (  4745 PWs)   bands (ev):

   -20.5683 -14.7222 -10.6393  -8.2074  -0.3394   3.3589   3.7087   4.2280

          k = 0.0680 0.5103 0.0000 (  4748 PWs)   bands (ev):

   -19.4121 -16.3226 -10.9479  -7.1027  -1.8870   3.5020   5.0762   5.9050

          k = 0.0680 0.5888 0.0000 (  4754 PWs)   bands (ev):

   -18.4766 -17.4101 -11.0527  -6.5216  -2.6215   3.4492   6.9066   7.0652

          k = 0.1360 0.2355 0.0000 (  4801 PWs)   bands (ev):

   -22.4873 -10.8431 -10.3584  -9.6920   0.7212   1.5153   2.3252   2.6669

          k = 0.1360 0.3140 0.0000 (  4767 PWs)   bands (ev):

   -21.7727 -12.2246 -10.5866  -9.5293   1.7089   1.9660   2.5163   3.3360

          k = 0.1360 0.3926 0.0000 (  4754 PWs)   bands (ev):

   -20.8669 -13.8000 -11.2540  -8.5096   0.3148   2.9722   3.7823   4.6292

          k = 0.1360 0.4711 0.0000 (  4752 PWs)   bands (ev):

   -19.7881 -15.3956 -11.6948  -7.3767  -1.2946   4.4826   4.8554   5.3042

          k = 0.1360 0.5496 0.0000 (  4752 PWs)   bands (ev):

   -18.6193 -16.8401 -11.9152  -6.4094  -2.5199   4.7108   6.2968   6.9710

          k = 0.2040 0.3533 0.0000 (  4759 PWs)   bands (ev):

   -20.9672 -13.2351 -11.7422  -8.6124   0.5818   2.8336   3.6273   4.4909

          k = 0.2040 0.4318 0.0000 (  4757 PWs)   bands (ev):

   -19.9812 -14.5069 -12.5543  -7.5301  -0.8788   4.2272   4.9824   5.9295

          k = 0.2040 0.5103 0.0000 (  4757 PWs)   bands (ev):

   -18.8498 -15.9146 -12.9793  -6.4054  -2.2524   5.8613   6.3960   6.4908

          k = 0.2040 0.5888 0.0000 (  4742 PWs)   bands (ev):

   -17.9398 -16.9315 -13.1114  -5.7635  -2.9812   6.4053   7.0319   7.5960

          k = 0.2720 0.4711 0.0000 (  4745 PWs)   bands (ev):

   -18.9359 -15.2889 -13.6590  -6.4175  -2.1137   5.7317   6.1665   7.4588

          k = 0.2720 0.5496 0.0000 (  4745 PWs)   bands (ev):

   -17.8137 -16.3212 -14.1948  -5.3487  -3.2372   6.5226   7.3999   8.1540

          k = 0.3400 0.5888 0.0000 (  4758 PWs)   bands (ev):

   -16.8723 -16.8723 -14.7914  -4.2746  -4.2746   6.3337   8.5256   8.5256

     the Fermi energy is    -4.2746 ev

!    total energy              =     -22.79389903 Ry
     estimated scf accuracy    <          8.2E-11 Ry
     smearing contrib. (-TS)   =      -0.00005015 Ry
     internal energy E=F+TS    =     -22.79384888 Ry

     The total energy is F=E-TS. E is the sum of the following terms:
     one-electron contribution =    -383.92172346 Ry
     hartree contribution      =     192.57225373 Ry
     xc contribution           =      -6.99436306 Ry
     ewald contribution        =     175.54998391 Ry

     convergence has been achieved in  13 iterations

     Forces acting on atoms (cartesian axes, Ry/au):

     atom    1 type  1   force =     0.00000000    0.00000000    0.00000000
     atom    2 type  1   force =    -0.00000000   -0.00000000    0.00000000

     Total force =     0.000000     Total SCF correction =     0.000000


     Computing stress (Cartesian axis) and pressure

          total   stress  (Ry/bohr**3)                   (kbar)     P=      -18.11
  -0.00013504  -0.00000000   0.00000000          -19.86       -0.00        0.00
  -0.00000000  -0.00013504   0.00000000           -0.00      -19.86        0.00
   0.00000000   0.00000000  -0.00009919            0.00        0.00      -14.59

     Energy error            =      3.2E-03
     Gradient error          =      1.8E-26
     Cell gradient error     =      1.4E-04


     number of scf cycles    =   3
     number of bfgs steps    =   2

     enthalpy old            =     -22.7906692554 Ry
     enthalpy new            =     -22.7938990338 Ry

     CASE: enthalpy_new < enthalpy_old

     new trust radius        =       0.0589649745 bohr
     new conv_thr            =            1.0E-10 Ry

     new unit-cell volume =    750.96052 a.u.^3 (   111.28087 Ang^3 )
     density =      0.35845 g/cm^3

CELL_PARAMETERS (alat=  4.77000000)
   0.970057209  -0.000000000   0.000000000
  -0.485028604   0.840094186   0.000000000
   0.000000000   0.000000000   8.490566038

ATOMIC_POSITIONS (crystal)
C             0.3333333333        0.6666666667        0.5000000000
C             0.6666666667        0.3333333333        0.5000000000



     Writing output data file ./work/LiC477.save/
     NEW-OLD atomic charge density approx. for the potential

     negative rho (up, down):  2.991E-06 0.000E+00
     extrapolated charge    7.82724, renormalised to    8.00000

     total cpu time spent up to now is        6.0 secs

     Self-consistent Calculation

     iteration #  1     ecut=    50.00 Ry     beta= 0.70
     Davidson diagonalization with overlap
     c_bands:  3 eigenvalues not converged
     c_bands:  3 eigenvalues not converged
     c_bands:  1 eigenvalues not converged
     c_bands:  2 eigenvalues not converged
     c_bands:  2 eigenvalues not converged
     c_bands:  1 eigenvalues not converged
     c_bands:  1 eigenvalues not converged
     ethr =  1.00E-06,  avg # of iterations = 16.1

     negative rho (up, down):  1.203E-07 0.000E+00

     total cpu time spent up to now is        6.4 secs

     total energy              =     -22.78075888 Ry
     estimated scf accuracy    <       0.00740311 Ry

     iteration #  2     ecut=    50.00 Ry     beta= 0.70
     Davidson diagonalization with overlap
     ethr =  9.25E-05,  avg # of iterations = 10.0

     negative rho (up, down):  1.552E-08 0.000E+00

     total cpu time spent up to now is        6.7 secs

     total energy              =     -22.79531331 Ry
     estimated scf accuracy    <       0.00688964 Ry

     iteration #  3     ecut=    50.00 Ry     beta= 0.70
     Davidson diagonalization with overlap
     ethr =  8.61E-05,  avg # of iterations =  1.0

     total cpu time spent up to now is        6.8 secs

     total energy              =     -22.79474704 Ry
     estimated scf accuracy    <       0.00153394 Ry

     iteration #  4     ecut=    50.00 Ry     beta= 0.70
     Davidson diagonalization with overlap
     ethr =  1.92E-05,  avg # of iterations =  3.3

     total cpu time spent up to now is        6.9 secs

     total energy              =     -22.79494000 Ry
     estimated scf accuracy    <       0.00004225 Ry

     iteration #  5     ecut=    50.00 Ry     beta= 0.70
     Davidson diagonalization with overlap
     ethr =  5.28E-07,  avg # of iterations =  3.3

     total cpu time spent up to now is        7.1 secs

     total energy              =     -22.79495109 Ry
     estimated scf accuracy    <       0.00003631 Ry

     iteration #  6     ecut=    50.00 Ry     beta= 0.70
     Davidson diagonalization with overlap
     ethr =  4.54E-07,  avg # of iterations =  1.0

     total cpu time spent up to now is        7.2 secs

     total energy              =     -22.79494147 Ry
     estimated scf accuracy    <       0.00004970 Ry

     iteration #  7     ecut=    50.00 Ry     beta= 0.70
     Davidson diagonalization with overlap
     ethr =  4.54E-07,  avg # of iterations =  1.4

     total cpu time spent up to now is        7.3 secs

     total energy              =     -22.79492954 Ry
     estimated scf accuracy    <       0.00005259 Ry

     iteration #  8     ecut=    50.00 Ry     beta= 0.70
     Davidson diagonalization with overlap
     ethr =  4.54E-07,  avg # of iterations =  1.0

     total cpu time spent up to now is        7.4 secs

     total energy              =     -22.79492908 Ry
     estimated scf accuracy    <       0.00001263 Ry

     iteration #  9     ecut=    50.00 Ry     beta= 0.70
     Davidson diagonalization with overlap
     ethr =  1.58E-07,  avg # of iterations =  1.0

     total cpu time spent up to now is        7.5 secs

     total energy              =     -22.79492827 Ry
     estimated scf accuracy    <       0.00000386 Ry

     iteration # 10     ecut=    50.00 Ry     beta= 0.70
     Davidson diagonalization with overlap
     ethr =  4.83E-08,  avg # of iterations =  2.0

     total cpu time spent up to now is        7.6 secs

     total energy              =     -22.79492865 Ry
     estimated scf accuracy    <          7.4E-09 Ry

     iteration # 11     ecut=    50.00 Ry     beta= 0.70
     Davidson diagonalization with overlap
     ethr =  9.22E-11,  avg # of iterations =  4.1

     total cpu time spent up to now is        7.8 secs

     total energy              =     -22.79492864 Ry
     estimated scf accuracy    <       0.00000009 Ry

     iteration # 12     ecut=    50.00 Ry     beta= 0.70
     Davidson diagonalization with overlap
     ethr =  9.22E-11,  avg # of iterations =  2.0

     total cpu time spent up to now is        7.9 secs

     total energy              =     -22.79492865 Ry
     estimated scf accuracy    <       0.00000001 Ry

     iteration # 13     ecut=    50.00 Ry     beta= 0.70
     Davidson diagonalization with overlap
     ethr =  9.22E-11,  avg # of iterations =  2.0

     total cpu time spent up to now is        8.0 secs

     total energy              =     -22.79492865 Ry
     estimated scf accuracy    <          4.3E-09 Ry

     iteration # 14     ecut=    50.00 Ry     beta= 0.70
     Davidson diagonalization with overlap
     ethr =  5.41E-11,  avg # of iterations =  1.0

     total cpu time spent up to now is        8.2 secs

     total energy              =     -22.79492865 Ry
     estimated scf accuracy    <          1.5E-10 Ry

     iteration # 15     ecut=    50.00 Ry     beta= 0.70
     Davidson diagonalization with overlap
     ethr =  1.86E-12,  avg # of iterations =  2.0

     total cpu time spent up to now is        8.3 secs

     End of self-consistent calculation

          k = 0.0000 0.0000 0.0000 (  4831 PWs)   bands (ev):

   -23.8913 -11.9516  -7.2674  -7.2674  -0.9825  -0.2003   0.5909   0.9449

          k = 0.0000 0.0794 0.0000 (  4823 PWs)   bands (ev):

   -23.7852 -11.8243  -7.6948  -7.4950  -0.8381  -0.0537   0.7385   1.0919

          k = 0.0000 0.1587 0.0000 (  4811 PWs)   bands (ev):

   -23.4676 -11.4427  -8.8287  -8.0700  -0.4046   0.3858   1.1812   1.5325

          k = 0.0000 0.2381 0.0000 (  4797 PWs)   bands (ev):

   -22.9408 -10.8154 -10.3871  -8.7870   0.3175   1.1157   1.9189   2.2646

          k = 0.0000 0.3174 0.0000 (  4781 PWs)   bands (ev):

   -22.2087 -12.1330  -9.9572  -9.4846   1.3259   2.1027   2.7587   2.9497

          k = 0.0000 0.3968 0.0000 (  4765 PWs)   bands (ev):

   -21.2789 -13.9137 -10.0650  -8.9020   0.8173   2.6123   3.4719   3.7240

          k = 0.0000 0.4761 0.0000 (  4748 PWs)   bands (ev):

   -20.1663 -15.6307 -10.4749  -7.7344  -0.9687   3.4974   4.2247   5.0602

          k = 0.0000 0.5555 0.0000 (  4766 PWs)   bands (ev):

   -18.9423 -17.1680 -10.6854  -6.7577  -2.2773   3.4087   6.0466   6.9162

          k = 0.0687 0.1190 0.0000 (  4801 PWs)   bands (ev):

   -23.5734 -11.5692  -8.4218  -7.9482  -0.5490   0.2394   1.0337   1.3858

          k = 0.0687 0.1984 0.0000 (  4790 PWs)   bands (ev):

   -23.1511 -11.0647  -9.6771  -8.6861   0.0291   0.8245   1.6241   1.9726

          k = 0.0687 0.2777 0.0000 (  4792 PWs)   bands (ev):

   -22.5217 -11.2706 -10.3210  -9.4548   0.8951   1.6963   2.5093   2.8435

          k = 0.0687 0.3571 0.0000 (  4769 PWs)   bands (ev):

   -21.6907 -13.0037 -10.1243  -9.3594   1.6761   2.0455   2.8908   3.6850

          k = 0.0687 0.4365 0.0000 (  4745 PWs)   bands (ev):

   -20.6684 -14.7385 -10.6339  -8.2310  -0.1487   3.4628   4.1009   4.3291

          k = 0.0687 0.5158 0.0000 (  4748 PWs)   bands (ev):

   -19.4829 -16.3758 -10.9504  -7.0915  -1.7503   3.9150   5.2050   6.0458

          k = 0.0687 0.5952 0.0000 (  4754 PWs)   bands (ev):

   -18.4929 -17.5204 -11.0577  -6.4897  -2.5123   3.8669   7.0780   7.2339

          k = 0.1374 0.2381 0.0000 (  4801 PWs)   bands (ev):

   -22.6264 -10.7810 -10.4430  -9.6649   0.7516   1.5538   2.3624   2.7047

          k = 0.1374 0.3174 0.0000 (  4767 PWs)   bands (ev):

   -21.8979 -12.1845 -10.5818  -9.5912   1.7607   2.2395   2.5828   3.3953

          k = 0.1374 0.3968 0.0000 (  4754 PWs)   bands (ev):

   -20.9737 -13.7914 -11.2618  -8.5426   0.5356   3.0516   3.8732   4.7194

          k = 0.1374 0.4761 0.0000 (  4752 PWs)   bands (ev):

   -19.8709 -15.4218 -11.7105  -7.3757  -1.1291   4.6067   5.2730   5.4316

          k = 0.1374 0.5555 0.0000 (  4752 PWs)   bands (ev):

   -18.6627 -16.9114 -11.9350  -6.3764  -2.3981   5.1437   6.4527   7.1458

          k = 0.2062 0.3571 0.0000 (  4759 PWs)   bands (ev):

   -21.0763 -13.1996 -11.7731  -8.6485   0.8170   2.9099   3.7141   4.5754

          k = 0.2062 0.4365 0.0000 (  4757 PWs)   bands (ev):

   -20.0694 -14.4968 -12.6003  -7.5347  -0.6906   4.3344   5.1023   6.2886

          k = 0.2062 0.5158 0.0000 (  4757 PWs)   bands (ev):

   -18.9094 -15.9437 -13.0273  -6.3754  -2.1097   6.0103   6.5558   6.9397

          k = 0.2062 0.5952 0.0000 (  4742 PWs)   bands (ev):

   -17.9513 -17.0127 -13.1599  -5.7115  -2.8643   6.8608   7.2122   7.7934

          k = 0.2749 0.4761 0.0000 (  4745 PWs)   bands (ev):

   -18.9998 -15.2748 -13.7471  -6.3891  -1.9601   5.8739   6.3188   7.6127

          k = 0.2749 0.5555 0.0000 (  4745 PWs)   bands (ev):

   -17.8427 -16.3391 -14.2932  -5.2870  -3.1177   6.6765   7.5942   8.6016

          k = 0.3436 0.5952 0.0000 (  4758 PWs)   bands (ev):

   -16.8738 -16.8738 -14.9365  -4.1821  -4.1821   6.4752   8.8363   8.8363

     the Fermi energy is    -4.1821 ev

!    total energy              =     -22.79492865 Ry
     estimated scf accuracy    <          4.9E-12 Ry
     smearing contrib. (-TS)   =      -0.00005015 Ry
     internal energy E=F+TS    =     -22.79487850 Ry

     The total energy is F=E-TS. E is the sum of the following terms:
     one-electron contribution =    -392.32657590 Ry
     hartree contribution      =     196.79626665 Ry
     xc contribution           =      -7.04045150 Ry
     ewald contribution        =     179.77588225 Ry

     convergence has been achieved in  15 iterations

     Forces acting on atoms (cartesian axes, Ry/au):

     atom    1 type  1   force =    -0.00000000   -0.00000000    0.00000000
     atom    2 type  1   force =     0.00000000    0.00000000    0.00000000

     Total force =     0.000000     Total SCF correction =     0.000000


     Computing stress (Cartesian axis) and pressure

          total   stress  (Ry/bohr**3)                   (kbar)     P=       -3.75
   0.00001094   0.00000000   0.00000000            1.61        0.00        0.00
   0.00000000   0.00001094  -0.00000000            0.00        1.61       -0.00
   0.00000000  -0.00000000  -0.00009837            0.00       -0.00      -14.47

     Energy error            =      1.0E-03
     Gradient error          =      1.8E-26
     Cell gradient error     =      1.1E-05


     number of scf cycles    =   4
     number of bfgs steps    =   3

     enthalpy old            =     -22.7938990338 Ry
     enthalpy new            =     -22.7949286504 Ry

     CASE: enthalpy_new < enthalpy_old

     new trust radius        =       0.0043747416 bohr
     new conv_thr            =            1.0E-10 Ry

     new unit-cell volume =    752.15984 a.u.^3 (   111.45859 Ang^3 )
     density =      0.35788 g/cm^3

CELL_PARAMETERS (alat=  4.77000000)
   0.970831512  -0.000000000   0.000000000
  -0.485415756   0.840764752   0.000000000
   0.000000000   0.000000000   8.490566038

ATOMIC_POSITIONS (crystal)
C             0.3333333333        0.6666666667        0.5000000000
C             0.6666666667        0.3333333333        0.5000000000



     Writing output data file ./work/LiC477.save/
     NEW-OLD atomic charge density approx. for the potential
     extrapolated charge    8.01273, renormalised to    8.00000

     total cpu time spent up to now is        8.3 secs

     Self-consistent Calculation

     iteration #  1     ecut=    50.00 Ry     beta= 0.70
     Davidson diagonalization with overlap
     c_bands:  1 eigenvalues not converged
     c_bands:  1 eigenvalues not converged
     c_bands:  1 eigenvalues not converged
     c_bands:  1 eigenvalues not converged
     ethr =  1.00E-06,  avg # of iterations = 10.6

     total cpu time spent up to now is        8.6 secs

     total energy              =     -22.79483716 Ry
     estimated scf accuracy    <       0.00005015 Ry

     iteration #  2     ecut=    50.00 Ry     beta= 0.70
     Davidson diagonalization with overlap
     c_bands:  1 eigenvalues not converged
     c_bands:  1 eigenvalues not converged
     c_bands:  1 eigenvalues not converged
     ethr =  6.27E-07,  avg # of iterations = 10.4

     total cpu time spent up to now is        8.9 secs

     total energy              =     -22.79493797 Ry
     estimated scf accuracy    <       0.00004717 Ry

     iteration #  3     ecut=    50.00 Ry     beta= 0.70
     Davidson diagonalization with overlap
     ethr =  5.90E-07,  avg # of iterations =  1.1

     total cpu time spent up to now is        9.0 secs

     total energy              =     -22.79493520 Ry
     estimated scf accuracy    <       0.00001085 Ry

     iteration #  4     ecut=    50.00 Ry     beta= 0.70
     Davidson diagonalization with overlap
     ethr =  1.36E-07,  avg # of iterations =  1.4

     total cpu time spent up to now is        9.1 secs

     total energy              =     -22.79493592 Ry
     estimated scf accuracy    <       0.00000196 Ry

     iteration #  5     ecut=    50.00 Ry     beta= 0.70
     Davidson diagonalization with overlap
     ethr =  2.46E-08,  avg # of iterations =  1.0

     total cpu time spent up to now is        9.2 secs

     total energy              =     -22.79493501 Ry
     estimated scf accuracy    <       0.00000208 Ry

     iteration #  6     ecut=    50.00 Ry     beta= 0.70
     Davidson diagonalization with overlap
     ethr =  2.46E-08,  avg # of iterations =  1.0

     total cpu time spent up to now is        9.3 secs

     total energy              =     -22.79493490 Ry
     estimated scf accuracy    <       0.00000037 Ry

     iteration #  7     ecut=    50.00 Ry     beta= 0.70
     Davidson diagonalization with overlap
     ethr =  4.63E-09,  avg # of iterations =  2.0

     total cpu time spent up to now is        9.4 secs

     total energy              =     -22.79493497 Ry
     estimated scf accuracy    <          6.1E-09 Ry

     iteration #  8     ecut=    50.00 Ry     beta= 0.70
     Davidson diagonalization with overlap
     ethr =  7.67E-11,  avg # of iterations =  2.5

     total cpu time spent up to now is        9.6 secs

     total energy              =     -22.79493497 Ry
     estimated scf accuracy    <          2.0E-10 Ry

     iteration #  9     ecut=    50.00 Ry     beta= 0.70
     Davidson diagonalization with overlap
     ethr =  2.51E-12,  avg # of iterations =  3.3

     total cpu time spent up to now is        9.7 secs

     End of self-consistent calculation

          k = 0.0000 0.0000 0.0000 (  4831 PWs)   bands (ev):

   -23.8790 -11.9422  -7.2750  -7.2750  -0.9821  -0.2003   0.5910   0.9450

          k = 0.0000 0.0793 0.0000 (  4823 PWs)   bands (ev):

   -23.7731 -11.8151  -7.7021  -7.5021  -0.8378  -0.0539   0.7383   1.0917

          k = 0.0000 0.1586 0.0000 (  4811 PWs)   bands (ev):

   -23.4560 -11.4343  -8.8348  -8.0758  -0.4050   0.3848   1.1803   1.5316

          k = 0.0000 0.2379 0.0000 (  4797 PWs)   bands (ev):

   -22.9299 -10.8082 -10.3915  -8.7911   0.3159   1.1135   1.9169   2.2625

          k = 0.0000 0.3172 0.0000 (  4781 PWs)   bands (ev):

   -22.1988 -12.1353  -9.9518  -9.4872   1.3227   2.0980   2.7386   2.9461

          k = 0.0000 0.3965 0.0000 (  4765 PWs)   bands (ev):

   -21.2704 -13.9136 -10.0664  -8.8987   0.8008   2.6069   3.4656   3.6948

          k = 0.0000 0.4758 0.0000 (  4748 PWs)   bands (ev):

   -20.1597 -15.6280 -10.4754  -7.7337  -0.9807   3.4678   4.2159   5.0513

          k = 0.0000 0.5551 0.0000 (  4766 PWs)   bands (ev):

   -18.9387 -17.1620 -10.6855  -6.7594  -2.2859   3.3778   6.0357   6.9041

          k = 0.0687 0.1189 0.0000 (  4801 PWs)   bands (ev):

   -23.5616 -11.5605  -8.4285  -7.9541  -0.5492   0.2387   1.0330   1.3851

          k = 0.0687 0.1982 0.0000 (  4790 PWs)   bands (ev):

   -23.1399 -11.0571  -9.6826  -8.6904   0.0280   0.8228   1.6225   1.9710

          k = 0.0687 0.2775 0.0000 (  4792 PWs)   bands (ev):

   -22.5114 -11.2741 -10.3148  -9.4575   0.8926   1.6930   2.5063   2.8403

          k = 0.0687 0.3568 0.0000 (  4769 PWs)   bands (ev):

   -21.6816 -13.0049 -10.1257  -9.3552   1.6574   2.0412   2.8853   3.6797

          k = 0.0687 0.4361 0.0000 (  4745 PWs)   bands (ev):

   -20.6609 -14.7373 -10.6344  -8.2292  -0.1630   3.4555   4.0709   4.3214

          k = 0.0687 0.5154 0.0000 (  4748 PWs)   bands (ev):

   -19.4775 -16.3719 -10.9503  -7.0923  -1.7605   3.8840   5.1953   6.0353

          k = 0.0687 0.5947 0.0000 (  4754 PWs)   bands (ev):

   -18.4917 -17.5120 -11.0574  -6.4921  -2.5204   3.8355   7.0651   7.2212

          k = 0.1373 0.2379 0.0000 (  4801 PWs)   bands (ev):

   -22.6159 -10.7857 -10.4366  -9.6670   0.7494   1.5509   2.3596   2.7019

          k = 0.1373 0.3172 0.0000 (  4767 PWs)   bands (ev):

   -21.8885 -12.1875 -10.5822  -9.5865   1.7568   2.2192   2.5775   3.3908

          k = 0.1373 0.3965 0.0000 (  4754 PWs)   bands (ev):

   -20.9657 -13.7921 -11.2613  -8.5400   0.5190   3.0456   3.8663   4.7126

          k = 0.1373 0.4758 0.0000 (  4752 PWs)   bands (ev):

   -19.8646 -15.4199 -11.7094  -7.3757  -1.1415   4.5977   5.2413   5.4220

          k = 0.1373 0.5551 0.0000 (  4752 PWs)   bands (ev):

   -18.6594 -16.9061 -11.9335  -6.3788  -2.4072   5.1113   6.4409   7.1327

          k = 0.2060 0.3568 0.0000 (  4759 PWs)   bands (ev):

   -21.0681 -13.2023 -11.7709  -8.6457   0.7993   2.9042   3.7076   4.5691

          k = 0.2060 0.4361 0.0000 (  4757 PWs)   bands (ev):

   -20.0627 -14.4976 -12.5970  -7.5343  -0.7047   4.3264   5.0933   6.0377

          k = 0.2060 0.5154 0.0000 (  4757 PWs)   bands (ev):

   -18.9048 -15.9415 -13.0238  -6.3776  -2.1203   5.9992   6.5438   6.9060

          k = 0.2060 0.5947 0.0000 (  4742 PWs)   bands (ev):

   -17.9505 -17.0065 -13.1563  -5.7154  -2.8730   6.8267   7.1986   7.7786

          k = 0.2747 0.4758 0.0000 (  4745 PWs)   bands (ev):

   -18.9949 -15.2759 -13.7405  -6.3912  -1.9717   5.8632   6.3074   7.6011

          k = 0.2747 0.5551 0.0000 (  4745 PWs)   bands (ev):

   -17.8405 -16.3377 -14.2859  -5.2916  -3.1266   6.6649   7.5797   8.5685

          k = 0.3433 0.5947 0.0000 (  4758 PWs)   bands (ev):

   -16.8737 -16.8737 -14.9256  -4.1890  -4.1890   6.4646   8.8135   8.8135

     the Fermi energy is    -4.1890 ev

!    total energy              =     -22.79493497 Ry
     estimated scf accuracy    <          9.3E-11 Ry
     smearing contrib. (-TS)   =      -0.00005015 Ry
     internal energy E=F+TS    =     -22.79488482 Ry

     The total energy is F=E-TS. E is the sum of the following terms:
     one-electron contribution =    -391.69347930 Ry
     hartree contribution      =     196.47807849 Ry
     xc contribution           =      -7.03699274 Ry
     ewald contribution        =     179.45750873 Ry

     convergence has been achieved in   9 iterations

     Forces acting on atoms (cartesian axes, Ry/au):

     atom    1 type  1   force =     0.00000000    0.00000000    0.00000000
     atom    2 type  1   force =     0.00000000    0.00000000    0.00000000

     Total force =     0.000000     Total SCF correction =     0.000000


     Computing stress (Cartesian axis) and pressure

          total   stress  (Ry/bohr**3)                   (kbar)     P=       -4.86
  -0.00000038  -0.00000000   0.00000000           -0.06       -0.00        0.00
  -0.00000000  -0.00000038   0.00000000           -0.00       -0.06        0.00
   0.00000000   0.00000000  -0.00009843            0.00        0.00      -14.48

     Energy error            =      6.3E-06
     Gradient error          =      0.0E+00
     Cell gradient error     =      3.8E-07


     number of scf cycles    =   5
     number of bfgs steps    =   4

     enthalpy old            =     -22.7949286504 Ry
     enthalpy new            =     -22.7949349668 Ry

     CASE: enthalpy_new < enthalpy_old

     new trust radius        =       0.0001487129 bohr
     new conv_thr            =            1.0E-10 Ry

     new unit-cell volume =    752.11906 a.u.^3 (   111.45255 Ang^3 )
     density =      0.35790 g/cm^3

CELL_PARAMETERS (alat=  4.77000000)
   0.970805191  -0.000000000   0.000000000
  -0.485402595   0.840741957   0.000000000
   0.000000000   0.000000000   8.490566038

ATOMIC_POSITIONS (crystal)
C             0.3333333333        0.6666666667        0.5000000000
C             0.6666666667        0.3333333333        0.5000000000



     Writing output data file ./work/LiC477.save/
     NEW-OLD atomic charge density approx. for the potential
     extrapolated charge    7.99957, renormalised to    8.00000

     total cpu time spent up to now is        9.8 secs

     Self-consistent Calculation

     iteration #  1     ecut=    50.00 Ry     beta= 0.70
     Davidson diagonalization with overlap
     ethr =  1.00E-06,  avg # of iterations =  1.0

     Threshold (ethr) on eigenvalues was too large:
     Diagonalizing with lowered threshold

     Davidson diagonalization with overlap
     ethr =  6.30E-10,  avg # of iterations =  1.8

     total cpu time spent up to now is       10.0 secs

     total energy              =     -22.79493486 Ry
     estimated scf accuracy    <       0.00000006 Ry

     iteration #  2     ecut=    50.00 Ry     beta= 0.70
     Davidson diagonalization with overlap
     ethr =  7.13E-10,  avg # of iterations =  3.0

     total cpu time spent up to now is       10.1 secs

     total energy              =     -22.79493498 Ry
     estimated scf accuracy    <       0.00000005 Ry

     iteration #  3     ecut=    50.00 Ry     beta= 0.70
     Davidson diagonalization with overlap
     ethr =  6.65E-10,  avg # of iterations =  1.0

     total cpu time spent up to now is       10.2 secs

     total energy              =     -22.79493497 Ry
     estimated scf accuracy    <       0.00000001 Ry

     iteration #  4     ecut=    50.00 Ry     beta= 0.70
     Davidson diagonalization with overlap
     ethr =  1.54E-10,  avg # of iterations =  2.0

     total cpu time spent up to now is       10.3 secs

     total energy              =     -22.79493498 Ry
     estimated scf accuracy    <          1.7E-09 Ry

     iteration #  5     ecut=    50.00 Ry     beta= 0.70
     Davidson diagonalization with overlap
     ethr =  2.10E-11,  avg # of iterations =  1.0

     total cpu time spent up to now is       10.5 secs

     total energy              =     -22.79493498 Ry
     estimated scf accuracy    <          1.8E-09 Ry

     iteration #  6     ecut=    50.00 Ry     beta= 0.70
     Davidson diagonalization with overlap
     ethr =  2.10E-11,  avg # of iterations =  1.0

     total cpu time spent up to now is       10.6 secs

     total energy              =     -22.79493497 Ry
     estimated scf accuracy    <          8.1E-10 Ry

     iteration #  7     ecut=    50.00 Ry     beta= 0.70
     Davidson diagonalization with overlap
     ethr =  1.01E-11,  avg # of iterations =  2.0

     total cpu time spent up to now is       10.7 secs

     End of self-consistent calculation

          k = 0.0000 0.0000 0.0000 (  4831 PWs)   bands (ev):

   -23.8795 -11.9426  -7.2748  -7.2748  -0.9821  -0.2003   0.5909   0.9449

          k = 0.0000 0.0793 0.0000 (  4823 PWs)   bands (ev):

   -23.7736 -11.8155  -7.7019  -7.5020  -0.8379  -0.0539   0.7383   1.0917

          k = 0.0000 0.1586 0.0000 (  4811 PWs)   bands (ev):

   -23.4565 -11.4347  -8.8347  -8.0756  -0.4050   0.3848   1.1803   1.5317

          k = 0.0000 0.2379 0.0000 (  4797 PWs)   bands (ev):

   -22.9303 -10.8086 -10.3914  -8.7910   0.3159   1.1136   1.9169   2.2625

          k = 0.0000 0.3172 0.0000 (  4781 PWs)   bands (ev):

   -22.1993 -12.1353  -9.9520  -9.4872   1.3228   2.0982   2.7392   2.9461

          k = 0.0000 0.3965 0.0000 (  4765 PWs)   bands (ev):

   -21.2708 -13.9136 -10.0664  -8.8989   0.8013   2.6071   3.4658   3.6957

          k = 0.0000 0.4758 0.0000 (  4748 PWs)   bands (ev):

   -20.1600 -15.6282 -10.4755  -7.7338  -0.9804   3.4687   4.2162   5.0516

          k = 0.0000 0.5551 0.0000 (  4766 PWs)   bands (ev):

   -18.9389 -17.1622 -10.6856  -6.7594  -2.2857   3.3788   6.0360   6.9045

          k = 0.0687 0.1189 0.0000 (  4801 PWs)   bands (ev):

   -23.5621 -11.5609  -8.4284  -7.9540  -0.5492   0.2387   1.0330   1.3851

          k = 0.0687 0.1982 0.0000 (  4790 PWs)   bands (ev):

   -23.1404 -11.0574  -9.6825  -8.6903   0.0280   0.8228   1.6225   1.9710

          k = 0.0687 0.2775 0.0000 (  4792 PWs)   bands (ev):

   -22.5118 -11.2740 -10.3151  -9.4575   0.8926   1.6931   2.5064   2.8403

          k = 0.0687 0.3568 0.0000 (  4769 PWs)   bands (ev):

   -21.6820 -13.0049 -10.1257  -9.3554   1.6580   2.0413   2.8855   3.6799

          k = 0.0687 0.4361 0.0000 (  4745 PWs)   bands (ev):

   -20.6612 -14.7375 -10.6344  -8.2293  -0.1625   3.4557   4.0718   4.3217

          k = 0.0687 0.5154 0.0000 (  4748 PWs)   bands (ev):

   -19.4778 -16.3721 -10.9503  -7.0924  -1.7603   3.8850   5.1956   6.0356

          k = 0.0687 0.5947 0.0000 (  4754 PWs)   bands (ev):

   -18.4918 -17.5124 -11.0575  -6.4921  -2.5202   3.8365   7.0655   7.2216

          k = 0.1373 0.2379 0.0000 (  4801 PWs)   bands (ev):

   -22.6163 -10.7856 -10.4369  -9.6670   0.7494   1.5510   2.3597   2.7020

          k = 0.1373 0.3172 0.0000 (  4767 PWs)   bands (ev):

   -21.8889 -12.1875 -10.5823  -9.5867   1.7569   2.2198   2.5777   3.3910

          k = 0.1373 0.3965 0.0000 (  4754 PWs)   bands (ev):

   -20.9660 -13.7921 -11.2614  -8.5402   0.5195   3.0458   3.8665   4.7127

          k = 0.1373 0.4758 0.0000 (  4752 PWs)   bands (ev):

   -19.8649 -15.4200 -11.7095  -7.3758  -1.1412   4.5980   5.2423   5.4223

          k = 0.1373 0.5551 0.0000 (  4752 PWs)   bands (ev):

   -18.6595 -16.9063 -11.9337  -6.3788  -2.4069   5.1123   6.4413   7.1331

          k = 0.2060 0.3568 0.0000 (  4759 PWs)   bands (ev):

   -21.0684 -13.2023 -11.7710  -8.6459   0.7998   2.9043   3.7078   4.5692

          k = 0.2060 0.4361 0.0000 (  4757 PWs)   bands (ev):

   -20.0631 -14.4976 -12.5971  -7.5344  -0.7043   4.3266   5.0936   6.0379

          k = 0.2060 0.5154 0.0000 (  4757 PWs)   bands (ev):

   -18.9051 -15.9417 -13.0240  -6.3776  -2.1201   5.9996   6.5442   6.9071

          k = 0.2060 0.5947 0.0000 (  4742 PWs)   bands (ev):

   -17.9506 -17.0068 -13.1565  -5.7153  -2.8728   6.8278   7.1990   7.7790

          k = 0.2747 0.4758 0.0000 (  4745 PWs)   bands (ev):

   -18.9952 -15.2759 -13.7408  -6.3912  -1.9713   5.8635   6.3077   7.6015

          k = 0.2747 0.5551 0.0000 (  4745 PWs)   bands (ev):

   -17.8406 -16.3378 -14.2862  -5.2915  -3.1264   6.6653   7.5802   8.5693

          k = 0.3434 0.5947 0.0000 (  4758 PWs)   bands (ev):

   -16.8738 -16.8738 -14.9260  -4.1889  -4.1889   6.4649   8.8142   8.8142

     the Fermi energy is    -4.1889 ev

!    total energy              =     -22.79493497 Ry
     estimated scf accuracy    <          3.6E-12 Ry
     smearing contrib. (-TS)   =      -0.00005015 Ry
     internal energy E=F+TS    =     -22.79488482 Ry

     The total energy is F=E-TS. E is the sum of the following terms:
     one-electron contribution =    -391.71497467 Ry
     hartree contribution      =     196.48888062 Ry
     xc contribution           =      -7.03710923 Ry
     ewald contribution        =     179.46831845 Ry

     convergence has been achieved in   7 iterations

     Forces acting on atoms (cartesian axes, Ry/au):

     atom    1 type  1   force =     0.00000000    0.00000000    0.00000000
     atom    2 type  1   force =    -0.00000000   -0.00000000    0.00000000

     Total force =     0.000000     Total SCF correction =     0.000000


     Computing stress (Cartesian axis) and pressure

          total   stress  (Ry/bohr**3)                   (kbar)     P=       -4.83
  -0.00000001   0.00000000  -0.00000000           -0.00        0.00       -0.00
   0.00000000  -0.00000001  -0.00000000            0.00       -0.00       -0.00
   0.00000000   0.00000000  -0.00009843            0.00        0.00      -14.48

     Energy error            =      8.2E-09
     Gradient error          =      1.8E-26
     Cell gradient error     =      9.4E-09


     number of scf cycles    =   6
     number of bfgs steps    =   5

     enthalpy old            =     -22.7949349668 Ry
     enthalpy new            =     -22.7949349749 Ry

     CASE: enthalpy_new < enthalpy_old

     small trust_radius: resetting bfgs history

     new trust radius        =       0.0000012935 bohr
     new conv_thr            =            1.0E-10 Ry

     new unit-cell volume =    752.11870 a.u.^3 (   111.45249 Ang^3 )
     density =      0.35790 g/cm^3

CELL_PARAMETERS (alat=  4.77000000)
   0.970804962  -0.000000000   0.000000000
  -0.485402481   0.840741759   0.000000000
   0.000000000   0.000000000   8.490566038

ATOMIC_POSITIONS (crystal)
C             0.3333333333        0.6666666667        0.5000000000
C             0.6666666667        0.3333333333        0.5000000000



     Writing output data file ./work/LiC477.save/
     NEW-OLD atomic charge density approx. for the potential
     extrapolated charge    8.00000, renormalised to    8.00000

     total cpu time spent up to now is       10.7 secs

     Self-consistent Calculation

     iteration #  1     ecut=    50.00 Ry     beta= 0.70
     Davidson diagonalization with overlap
     ethr =  1.00E-06,  avg # of iterations =  1.0

     Threshold (ethr) on eigenvalues was too large:
     Diagonalizing with lowered threshold

     Davidson diagonalization with overlap
     ethr =  8.78E-14,  avg # of iterations =  2.0

     total cpu time spent up to now is       11.0 secs

     End of self-consistent calculation

          k = 0.0000 0.0000 0.0000 (  4831 PWs)   bands (ev):

   -23.8799 -11.9429  -7.2752  -7.2752  -0.9823  -0.2004   0.5910   0.9450

          k = 0.0000 0.0793 0.0000 (  4823 PWs)   bands (ev):

   -23.7739 -11.8158  -7.7022  -7.5023  -0.8380  -0.0540   0.7383   1.0917

          k = 0.0000 0.1586 0.0000 (  4811 PWs)   bands (ev):

   -23.4568 -11.4350  -8.8350  -8.0760  -0.4052   0.3847   1.1804   1.5317

          k = 0.0000 0.2379 0.0000 (  4797 PWs)   bands (ev):

   -22.9306 -10.8089 -10.3917  -8.7914   0.3157   1.1135   1.9170   2.2626

          k = 0.0000 0.3172 0.0000 (  4781 PWs)   bands (ev):

   -22.1996 -12.1356  -9.9523  -9.4875   1.3226   2.0981   2.7390   2.9461

          k = 0.0000 0.3965 0.0000 (  4765 PWs)   bands (ev):

   -21.2711 -13.9140 -10.0667  -8.8992   0.8010   2.6069   3.4657   3.6954

          k = 0.0000 0.4758 0.0000 (  4748 PWs)   bands (ev):

   -20.1603 -15.6285 -10.4758  -7.7341  -0.9807   3.4684   4.2160   5.0515

          k = 0.0000 0.5551 0.0000 (  4766 PWs)   bands (ev):

   -18.9392 -17.1626 -10.6859  -6.7597  -2.2860   3.3785   6.0358   6.9044

          k = 0.0687 0.1189 0.0000 (  4801 PWs)   bands (ev):

   -23.5624 -11.5612  -8.4287  -7.9543  -0.5494   0.2386   1.0331   1.3852

          k = 0.0687 0.1982 0.0000 (  4790 PWs)   bands (ev):

   -23.1407 -11.0577  -9.6828  -8.6907   0.0278   0.8227   1.6226   1.9711

          k = 0.0687 0.2775 0.0000 (  4792 PWs)   bands (ev):

   -22.5122 -11.2744 -10.3154  -9.4578   0.8924   1.6930   2.5064   2.8404

          k = 0.0687 0.3568 0.0000 (  4769 PWs)   bands (ev):

   -21.6823 -13.0053 -10.1261  -9.3557   1.6577   2.0411   2.8854   3.6799

          k = 0.0687 0.4361 0.0000 (  4745 PWs)   bands (ev):

   -20.6615 -14.7378 -10.6347  -8.2296  -0.1628   3.4556   4.0715   4.3216

          k = 0.0687 0.5154 0.0000 (  4748 PWs)   bands (ev):

   -19.4781 -16.3724 -10.9507  -7.0927  -1.7606   3.8847   5.1954   6.0355

          k = 0.0687 0.5947 0.0000 (  4754 PWs)   bands (ev):

   -18.4922 -17.5127 -11.0578  -6.4924  -2.5205   3.8362   7.0653   7.2214

          k = 0.1373 0.2379 0.0000 (  4801 PWs)   bands (ev):

   -22.6167 -10.7860 -10.4372  -9.6673   0.7492   1.5509   2.3597   2.7020

          k = 0.1373 0.3172 0.0000 (  4767 PWs)   bands (ev):

   -21.8892 -12.1878 -10.5826  -9.5870   1.7567   2.2195   2.5776   3.3910

          k = 0.1373 0.3965 0.0000 (  4754 PWs)   bands (ev):

   -20.9664 -13.7924 -11.2617  -8.5405   0.5192   3.0456   3.8664   4.7128

          k = 0.1373 0.4758 0.0000 (  4752 PWs)   bands (ev):

   -19.8652 -15.4203 -11.7098  -7.3761  -1.1415   4.5978   5.2420   5.4222

          k = 0.1373 0.5551 0.0000 (  4752 PWs)   bands (ev):

   -18.6599 -16.9067 -11.9340  -6.3791  -2.4072   5.1120   6.4411   7.1329

          k = 0.2060 0.3568 0.0000 (  4759 PWs)   bands (ev):

   -21.0687 -13.2026 -11.7713  -8.6462   0.7995   2.9042   3.7077   4.5693

          k = 0.2060 0.4361 0.0000 (  4757 PWs)   bands (ev):

   -20.0634 -14.4980 -12.5975  -7.5347  -0.7046   4.3264   5.0934   6.0380

          k = 0.2060 0.5154 0.0000 (  4757 PWs)   bands (ev):

   -18.9054 -15.9420 -13.0243  -6.3779  -2.1204   5.9994   6.5440   6.9068

          k = 0.2060 0.5947 0.0000 (  4742 PWs)   bands (ev):

   -17.9510 -17.0071 -13.1568  -5.7156  -2.8731   6.8275   7.1988   7.7788

          k = 0.2747 0.4758 0.0000 (  4745 PWs)   bands (ev):

   -18.9955 -15.2762 -13.7411  -6.3915  -1.9716   5.8633   6.3075   7.6015

          k = 0.2747 0.5551 0.0000 (  4745 PWs)   bands (ev):

   -17.8410 -16.3381 -14.2865  -5.2919  -3.1267   6.6650   7.5799   8.5690

          k = 0.3434 0.5947 0.0000 (  4758 PWs)   bands (ev):

   -16.8741 -16.8741 -14.9263  -4.1892  -4.1892   6.4647   8.8140   8.8140

     the Fermi energy is    -4.1892 ev

!    total energy              =     -22.79493497 Ry
     estimated scf accuracy    <          8.0E-12 Ry
     smearing contrib. (-TS)   =      -0.00005015 Ry
     internal energy E=F+TS    =     -22.79488482 Ry

     The total energy is F=E-TS. E is the sum of the following terms:
     one-electron contribution =    -391.71519044 Ry
     hartree contribution      =     196.48900659 Ry
     xc contribution           =      -7.03711345 Ry
     ewald contribution        =     179.46841247 Ry

     convergence has been achieved in   1 iterations

     Forces acting on atoms (cartesian axes, Ry/au):

     atom    1 type  1   force =    -0.00000000   -0.00000000    0.00000000
     atom    2 type  1   force =     0.00000000    0.00000000    0.00000000

     Total force =     0.000000     Total SCF correction =     0.000000


     Computing stress (Cartesian axis) and pressure

          total   stress  (Ry/bohr**3)                   (kbar)     P=       -4.83
  -0.00000001   0.00000000   0.00000000           -0.00        0.00        0.00
   0.00000000  -0.00000001   0.00000000            0.00       -0.00        0.00
   0.00000000   0.00000000  -0.00009840            0.00        0.00      -14.48

     Energy error            =      7.4E-12
     Gradient error          =      1.8E-26
     Cell gradient error     =      7.5E-09


     number of scf cycles    =   7
     number of bfgs steps    =   6

     enthalpy old            =     -22.7949349749 Ry
     enthalpy new            =     -22.7949349750 Ry

     CASE: enthalpy_new < enthalpy_old

     Message from routine bfgs:
     history already reset at previous step: stopping
     small trust_radius: resetting bfgs history

     new trust radius        =       0.0000010345 bohr
     new conv_thr            =            1.0E-10 Ry

     new unit-cell volume =    752.11842 a.u.^3 (   111.45245 Ang^3 )
     density =      0.35790 g/cm^3

CELL_PARAMETERS (alat=  4.77000000)
   0.970804779  -0.000000000   0.000000000
  -0.485402389   0.840741600   0.000000000
   0.000000000   0.000000000   8.490566038

ATOMIC_POSITIONS (crystal)
C             0.3333333333        0.6666666667        0.5000000000
C             0.6666666667        0.3333333333        0.5000000000



     Writing output data file ./work/LiC477.save/
     NEW-OLD atomic charge density approx. for the potential
     extrapolated charge    8.00000, renormalised to    8.00000

     total cpu time spent up to now is       11.0 secs

     Self-consistent Calculation

     iteration #  1     ecut=    50.00 Ry     beta= 0.70
     Davidson diagonalization with overlap
     ethr =  1.00E-06,  avg # of iterations =  1.0

     Threshold (ethr) on eigenvalues was too large:
     Diagonalizing with lowered threshold

     Davidson diagonalization with overlap
     ethr =  3.06E-14,  avg # of iterations =  2.0

     total cpu time spent up to now is       11.3 secs

     End of self-consistent calculation

          k = 0.0000 0.0000 0.0000 (  4831 PWs)   bands (ev):

   -23.8797 -11.9428  -7.2750  -7.2750  -0.9822  -0.2003   0.5910   0.9450

          k = 0.0000 0.0793 0.0000 (  4823 PWs)   bands (ev):

   -23.7738 -11.8157  -7.7021  -7.5022  -0.8380  -0.0540   0.7383   1.0917

          k = 0.0000 0.1586 0.0000 (  4811 PWs)   bands (ev):

   -23.4567 -11.4349  -8.8349  -8.0758  -0.4051   0.3848   1.1804   1.5317

          k = 0.0000 0.2379 0.0000 (  4797 PWs)   bands (ev):

   -22.9305 -10.8088 -10.3916  -8.7912   0.3158   1.1135   1.9170   2.2626

          k = 0.0000 0.3172 0.0000 (  4781 PWs)   bands (ev):

   -22.1995 -12.1355  -9.9522  -9.4874   1.3227   2.0981   2.7391   2.9461

          k = 0.0000 0.3965 0.0000 (  4765 PWs)   bands (ev):

   -21.2710 -13.9138 -10.0666  -8.8991   0.8011   2.6070   3.4657   3.6955

          k = 0.0000 0.4758 0.0000 (  4748 PWs)   bands (ev):

   -20.1602 -15.6284 -10.4757  -7.7340  -0.9806   3.4685   4.2161   5.0515

          k = 0.0000 0.5551 0.0000 (  4766 PWs)   bands (ev):

   -18.9391 -17.1624 -10.6858  -6.7596  -2.2859   3.3786   6.0359   6.9044

          k = 0.0687 0.1189 0.0000 (  4801 PWs)   bands (ev):

   -23.5623 -11.5611  -8.4286  -7.9542  -0.5494   0.2386   1.0331   1.3851

          k = 0.0687 0.1982 0.0000 (  4790 PWs)   bands (ev):

   -23.1406 -11.0576  -9.6827  -8.6905   0.0279   0.8228   1.6226   1.9711

          k = 0.0687 0.2775 0.0000 (  4792 PWs)   bands (ev):

   -22.5121 -11.2742 -10.3153  -9.4577   0.8925   1.6931   2.5064   2.8404

          k = 0.0687 0.3568 0.0000 (  4769 PWs)   bands (ev):

   -21.6822 -13.0051 -10.1259  -9.3556   1.6578   2.0412   2.8854   3.6799

          k = 0.0687 0.4361 0.0000 (  4745 PWs)   bands (ev):

   -20.6614 -14.7377 -10.6346  -8.2295  -0.1627   3.4556   4.0717   4.3216

          k = 0.0687 0.5154 0.0000 (  4748 PWs)   bands (ev):

   -19.4780 -16.3723 -10.9505  -7.0926  -1.7605   3.8848   5.1955   6.0355

          k = 0.0687 0.5947 0.0000 (  4754 PWs)   bands (ev):

   -18.4920 -17.5126 -11.0577  -6.4923  -2.5204   3.8363   7.0653   7.2215

          k = 0.1373 0.2379 0.0000 (  4801 PWs)   bands (ev):

   -22.6165 -10.7859 -10.4371  -9.6672   0.7493   1.5509   2.3597   2.7020

          k = 0.1373 0.3172 0.0000 (  4767 PWs)   bands (ev):

   -21.8891 -12.1877 -10.5825  -9.5869   1.7568   2.2196   2.5776   3.3910

          k = 0.1373 0.3965 0.0000 (  4754 PWs)   bands (ev):

   -20.9663 -13.7923 -11.2616  -8.5404   0.5193   3.0456   3.8664   4.7128

          k = 0.1373 0.4758 0.0000 (  4752 PWs)   bands (ev):

   -19.8651 -15.4202 -11.7097  -7.3760  -1.1414   4.5979   5.2421   5.4222

          k = 0.1373 0.5551 0.0000 (  4752 PWs)   bands (ev):

   -18.6597 -16.9065 -11.9339  -6.3790  -2.4071   5.1121   6.4412   7.1330

          k = 0.2060 0.3568 0.0000 (  4759 PWs)   bands (ev):

   -21.0686 -13.2025 -11.7712  -8.6461   0.7996   2.9042   3.7077   4.5693

          k = 0.2060 0.4361 0.0000 (  4757 PWs)   bands (ev):

   -20.0633 -14.4978 -12.5973  -7.5346  -0.7045   4.3265   5.0935   6.0380

          k = 0.2060 0.5154 0.0000 (  4757 PWs)   bands (ev):

   -18.9053 -15.9419 -13.0242  -6.3778  -2.1203   5.9994   6.5440   6.9069

          k = 0.2060 0.5947 0.0000 (  4742 PWs)   bands (ev):

   -17.9508 -17.0070 -13.1567  -5.7155  -2.8730   6.8276   7.1989   7.7789

          k = 0.2747 0.4758 0.0000 (  4745 PWs)   bands (ev):

   -18.9954 -15.2761 -13.7410  -6.3914  -1.9715   5.8634   6.3076   7.6015

          k = 0.2747 0.5551 0.0000 (  4745 PWs)   bands (ev):

   -17.8409 -16.3380 -14.2864  -5.2917  -3.1266   6.6651   7.5800   8.5691

          k = 0.3434 0.5947 0.0000 (  4758 PWs)   bands (ev):

   -16.8740 -16.8740 -14.9262  -4.1891  -4.1891   6.4647   8.8141   8.8141

     the Fermi energy is    -4.1891 ev

!    total energy              =     -22.79493497 Ry
     estimated scf accuracy    <          2.6E-12 Ry
     smearing contrib. (-TS)   =      -0.00005015 Ry
     internal energy E=F+TS    =     -22.79488482 Ry

     The total energy is F=E-TS. E is the sum of the following terms:
     one-electron contribution =    -391.71532164 Ry
     hartree contribution      =     196.48906141 Ry
     xc contribution           =      -7.03711227 Ry
     ewald contribution        =     179.46848767 Ry

     convergence has been achieved in   1 iterations

     Forces acting on atoms (cartesian axes, Ry/au):

     atom    1 type  1   force =     0.00000000    0.00000000    0.00000000
     atom    2 type  1   force =     0.00000000    0.00000000    0.00000000

     Total force =     0.000000     Total SCF correction =     0.000000


     Computing stress (Cartesian axis) and pressure

          total   stress  (Ry/bohr**3)                   (kbar)     P=       -4.83
  -0.00000000  -0.00000000  -0.00000000           -0.00       -0.00       -0.00
  -0.00000000  -0.00000000  -0.00000000           -0.00       -0.00       -0.00
  -0.00000000  -0.00000000  -0.00009842           -0.00       -0.00      -14.48

     Energy error            =      2.2E-11
     Gradient error          =      0.0E+00
     Cell gradient error     =      2.6E-09


     bfgs converged in   8 scf cycles and   7 bfgs steps
     (criteria: energy <  1.0E-04 Ry, force <  1.0E-08Ry/Bohr, cell <  1.0E-03kbar)

     End of BFGS Geometry Optimization

     Final enthalpy =     -22.7949349749 Ry

     File ./work/LiC477.bfgs deleted, as requested
Begin final coordinates
     new unit-cell volume =    752.11842 a.u.^3 (   111.45245 Ang^3 )
     density =      0.35790 g/cm^3

CELL_PARAMETERS (alat=  4.77000000)
   0.970804779  -0.000000000   0.000000000
  -0.485402389   0.840741600   0.000000000
   0.000000000   0.000000000   8.490566038

ATOMIC_POSITIONS (crystal)
C             0.3333333333        0.6666666667        0.5000000000
C             0.6666666667        0.3333333333        0.5000000000
End final coordinates



     Writing output data file ./work/LiC477.save/

     Final scf calculation at the relaxed structure.
     The G-vectors are recalculated for the final unit cell
     Results may differ from those at the preceding step.
 
     Parallelization info
     --------------------
     sticks:   dense  smooth     PW     G-vecs:    dense   smooth      PW
     Min           9       9      2                 1115     1115     170
     Max          10      10      3                 1144     1144     215
     Sum         301     301     91                35979    35979    6397
 


     bravais-lattice index     =            4
     lattice parameter (alat)  =       4.7700  a.u.
     unit-cell volume          =     752.1184 (a.u.)^3
     number of atoms/cell      =            2
     number of atomic types    =            1
     number of electrons       =         8.00
     number of Kohn-Sham states=            8
     kinetic-energy cutoff     =      50.0000  Ry
     charge density cutoff     =     200.0000  Ry
     scf convergence threshold =      1.0E-10
     mixing beta               =       0.7000
     number of iterations used =            8  plain     mixing
     press convergence thresh. =      1.0E-03
     Exchange-correlation= PBE
                           (   1   4   3   4   0   0   0)

     celldm(1)=   4.770000  celldm(2)=   0.000000  celldm(3)=   8.490566
     celldm(4)=   0.000000  celldm(5)=   0.000000  celldm(6)=   0.000000

     crystal axes: (cart. coord. in units of alat)
               a(1) = (   0.970805  -0.000000   0.000000 )  
               a(2) = (  -0.485402   0.840742   0.000000 )  
               a(3) = (   0.000000   0.000000   8.490566 )  

     reciprocal axes: (cart. coord. in units 2 pi/alat)
               b(1) = (  1.030073  0.594713  0.000000 )  
               b(2) = (  0.000000  1.189426  0.000000 )  
               b(3) = (  0.000000  0.000000  0.117778 )  


     PseudoPot. # 1 for C  read from file:
     /home/yhkim/qe-6.7/pseudo/ONCV1/1.2/C_ONCV_PBE-1.2.upf
     MD5 check sum: 1a5f83a7b1f58d24996abe00ed223ac6
     Pseudo is Norm-conserving, Zval =  4.0
     Generated using ONCVPSP code by D. R. Hamann
     Using radial grid of  602 points,  4 beta functions with: 
                l(1) =   0
                l(2) =   0
                l(3) =   1
                l(4) =   1

     atomic species   valence    mass     pseudopotential
        C              4.00    12.01070     C ( 1.00)

     24 Sym. Ops., with inversion, found



   Cartesian axes

     site n.     atom                  positions (alat units)
         1           C   tau(   1) = (  -0.0000000   0.5604944   4.2452830  )
         2           C   tau(   2) = (   0.4854024   0.2802472   4.2452830  )

     number of k points=    27  Methfessel-Paxton smearing, width (Ry)=  0.0100
                       cart. coord. in units 2pi/alat
        k(    1) = (   0.0000000   0.0000000   0.0000000), wk =   0.0088889
        k(    2) = (   0.0000000   0.0792951   0.0000000), wk =   0.0533333
        k(    3) = (   0.0000000   0.1585901   0.0000000), wk =   0.0533333
        k(    4) = (   0.0000000   0.2378852   0.0000000), wk =   0.0533333
        k(    5) = (   0.0000000   0.3171803   0.0000000), wk =   0.0533333
        k(    6) = (   0.0000000   0.3964754   0.0000000), wk =   0.0533333
        k(    7) = (   0.0000000   0.4757704   0.0000000), wk =   0.0533333
        k(    8) = (   0.0000000   0.5550655   0.0000000), wk =   0.0533333
        k(    9) = (   0.0686715   0.1189426   0.0000000), wk =   0.0533333
        k(   10) = (   0.0686715   0.1982377   0.0000000), wk =   0.1066667
        k(   11) = (   0.0686715   0.2775328   0.0000000), wk =   0.1066667
        k(   12) = (   0.0686715   0.3568278   0.0000000), wk =   0.1066667
        k(   13) = (   0.0686715   0.4361229   0.0000000), wk =   0.1066667
        k(   14) = (   0.0686715   0.5154180   0.0000000), wk =   0.1066667
        k(   15) = (   0.0686715   0.5947130   0.0000000), wk =   0.0533333
        k(   16) = (   0.1373431   0.2378852   0.0000000), wk =   0.0533333
        k(   17) = (   0.1373431   0.3171803   0.0000000), wk =   0.1066667
        k(   18) = (   0.1373431   0.3964754   0.0000000), wk =   0.1066667
        k(   19) = (   0.1373431   0.4757704   0.0000000), wk =   0.1066667
        k(   20) = (   0.1373431   0.5550655   0.0000000), wk =   0.1066667
        k(   21) = (   0.2060146   0.3568278   0.0000000), wk =   0.0533333
        k(   22) = (   0.2060146   0.4361229   0.0000000), wk =   0.1066667
        k(   23) = (   0.2060146   0.5154180   0.0000000), wk =   0.1066667
        k(   24) = (   0.2060146   0.5947130   0.0000000), wk =   0.0533333
        k(   25) = (   0.2746862   0.4757704   0.0000000), wk =   0.0533333
        k(   26) = (   0.2746862   0.5550655   0.0000000), wk =   0.1066667
        k(   27) = (   0.3433577   0.5947130   0.0000000), wk =   0.0177778

     Dense  grid:    35979 G-vectors     FFT dimensions: (  24,  24, 192)

     Estimated max dynamical RAM per process >       1.96 MB

     Estimated total dynamical RAM >      62.58 MB
 ----2D----2D----2D----2D----2D----2D----2D----2D----2D----2D----2D----2D
  The code is running with the 2D cutoff
  Please refer to:
  Sohier, T., Calandra, M., & Mauri, F. (2017), 
  Density functional perturbation theory for gated two-dimensional heterostructu
 res:
  Theoretical developments and application to flexural phonons in graphene.
  Physical Review B, 96(7), 75448. https://doi.org/10.1103/PhysRevB.96.075448
 ----2D----2D----2D----2D----2D----2D----2D----2D----2D----2D----2D----2D

     Initial potential from superposition of free atoms

     starting charge    7.98607, renormalised to    8.00000

     negative rho (up, down):  1.161E-04 0.000E+00
     Starting wfcs are random

     total cpu time spent up to now is       11.4 secs

     Self-consistent Calculation

     iteration #  1     ecut=    50.00 Ry     beta= 0.70
     Davidson diagonalization with overlap
     c_bands:  2 eigenvalues not converged
     c_bands:  5 eigenvalues not converged
     c_bands:  5 eigenvalues not converged
     c_bands:  5 eigenvalues not converged
     c_bands:  4 eigenvalues not converged
     c_bands:  4 eigenvalues not converged
     c_bands:  3 eigenvalues not converged
     c_bands:  2 eigenvalues not converged
     c_bands:  5 eigenvalues not converged
     c_bands:  5 eigenvalues not converged
     c_bands:  4 eigenvalues not converged
     c_bands:  4 eigenvalues not converged
     c_bands:  2 eigenvalues not converged
     c_bands:  2 eigenvalues not converged
     c_bands:  2 eigenvalues not converged
     c_bands:  4 eigenvalues not converged
     c_bands:  4 eigenvalues not converged
     c_bands:  4 eigenvalues not converged
     c_bands:  3 eigenvalues not converged
     c_bands:  3 eigenvalues not converged
     c_bands:  4 eigenvalues not converged
     c_bands:  4 eigenvalues not converged
     c_bands:  3 eigenvalues not converged
     c_bands:  3 eigenvalues not converged
     c_bands:  3 eigenvalues not converged
     c_bands:  3 eigenvalues not converged
     c_bands:  3 eigenvalues not converged
     ethr =  1.00E-06,  avg # of iterations = 20.7

     negative rho (up, down):  2.336E-05 0.000E+00

     total cpu time spent up to now is       12.1 secs

     total energy              =     -22.75983887 Ry
     estimated scf accuracy    <       0.20074537 Ry

     iteration #  2     ecut=    50.00 Ry     beta= 0.70
     Davidson diagonalization with overlap
     ethr =  2.51E-03,  avg # of iterations =  2.1

     negative rho (up, down):  3.060E-06 0.000E+00

     total cpu time spent up to now is       12.2 secs

     total energy              =     -22.79011149 Ry
     estimated scf accuracy    <       0.00235255 Ry

     iteration #  3     ecut=    50.00 Ry     beta= 0.70
     Davidson diagonalization with overlap
     ethr =  2.94E-05,  avg # of iterations =  9.1

     total cpu time spent up to now is       12.4 secs

     total energy              =     -22.79050637 Ry
     estimated scf accuracy    <       0.00017290 Ry

     iteration #  4     ecut=    50.00 Ry     beta= 0.70
     Davidson diagonalization with overlap
     ethr =  2.16E-06,  avg # of iterations =  5.1

     total cpu time spent up to now is       12.6 secs

     total energy              =     -22.79052047 Ry
     estimated scf accuracy    <       0.00000119 Ry

     iteration #  5     ecut=    50.00 Ry     beta= 0.70
     Davidson diagonalization with overlap
     ethr =  1.49E-08,  avg # of iterations =  3.8

     total cpu time spent up to now is       12.7 secs

     total energy              =     -22.79052203 Ry
     estimated scf accuracy    <       0.00000004 Ry

     iteration #  6     ecut=    50.00 Ry     beta= 0.70
     Davidson diagonalization with overlap
     ethr =  4.82E-10,  avg # of iterations =  2.4

     total cpu time spent up to now is       12.8 secs

     total energy              =     -22.79052204 Ry
     estimated scf accuracy    <          1.1E-09 Ry

     iteration #  7     ecut=    50.00 Ry     beta= 0.70
     Davidson diagonalization with overlap
     ethr =  1.35E-11,  avg # of iterations =  2.9

     total cpu time spent up to now is       12.9 secs

     End of self-consistent calculation

          k = 0.0000 0.0000 0.0000 (  4459 PWs)   bands (ev):

   -23.8861 -11.9455  -7.2655  -7.2655  -0.9836  -0.2037   0.5837   0.9388

          k = 0.0000 0.0793 0.0000 (  4461 PWs)   bands (ev):

   -23.7799 -11.8172  -7.6923  -7.4932  -0.8393  -0.0572   0.7310   1.0856

          k = 0.0000 0.1586 0.0000 (  4485 PWs)   bands (ev):

   -23.4626 -11.4367  -8.8260  -8.0656  -0.4064   0.3816   1.1731   1.5255

          k = 0.0000 0.2379 0.0000 (  4463 PWs)   bands (ev):

   -22.9363 -10.8104 -10.3814  -8.7801   0.3146   1.1104   1.9097   2.2564

          k = 0.0000 0.3172 0.0000 (  4505 PWs)   bands (ev):

   -22.2052 -12.1321  -9.9539  -9.4799   1.3216   2.0956   2.7406   2.9388

          k = 0.0000 0.3965 0.0000 (  4519 PWs)   bands (ev):

   -21.2767 -13.9153 -10.0597  -8.8991   0.8035   2.6060   3.4630   3.6925

          k = 0.0000 0.4758 0.0000 (  4515 PWs)   bands (ev):

   -20.1654 -15.6320 -10.4701  -7.7341  -0.9799   3.4648   4.2148   5.0491

          k = 0.0000 0.5551 0.0000 (  4521 PWs)   bands (ev):

   -18.9440 -17.1658 -10.6809  -6.7591  -2.2858   3.3741   6.0353   6.9024

          k = 0.0687 0.1189 0.0000 (  4487 PWs)   bands (ev):

   -23.5683 -11.5629  -8.4198  -7.9458  -0.5507   0.2354   1.0257   1.3790

          k = 0.0687 0.1982 0.0000 (  4475 PWs)   bands (ev):

   -23.1465 -11.0591  -9.6732  -8.6824   0.0267   0.8196   1.6153   1.9649

          k = 0.0687 0.2775 0.0000 (  4480 PWs)   bands (ev):

   -22.5179 -11.2684 -10.3163  -9.4489   0.8913   1.6901   2.4992   2.8345

          k = 0.0687 0.3568 0.0000 (  4494 PWs)   bands (ev):

   -21.6878 -13.0041 -10.1191  -9.3561   1.6612   2.0401   2.8826   3.6732

          k = 0.0687 0.4361 0.0000 (  4506 PWs)   bands (ev):

   -20.6669 -14.7402 -10.6285  -8.2309  -0.1605   3.4549   4.0687   4.3189

          k = 0.0687 0.5154 0.0000 (  4508 PWs)   bands (ev):

   -19.4831 -16.3760 -10.9448  -7.0941  -1.7591   3.8817   5.1946   6.0332

          k = 0.0687 0.5947 0.0000 (  4510 PWs)   bands (ev):

   -18.4973 -17.5158 -11.0524  -6.4928  -2.5198   3.8330   7.0653   7.2211

          k = 0.1373 0.2379 0.0000 (  4477 PWs)   bands (ev):

   -22.6224 -10.7800 -10.4379  -9.6589   0.7481   1.5479   2.3524   2.6960

          k = 0.1373 0.3172 0.0000 (  4475 PWs)   bands (ev):

   -21.8948 -12.1851 -10.5751  -9.5884   1.7557   2.2233   2.5749   3.3837

          k = 0.1373 0.3965 0.0000 (  4495 PWs)   bands (ev):

   -20.9719 -13.7925 -11.2564  -8.5415   0.5199   3.0447   3.8637   4.7057

          k = 0.1373 0.4758 0.0000 (  4505 PWs)   bands (ev):

   -19.8705 -15.4227 -11.7050  -7.3776  -1.1417   4.5974   5.2424   5.4199

          k = 0.1373 0.5551 0.0000 (  4501 PWs)   bands (ev):

   -18.6646 -16.9102 -11.9297  -6.3799  -2.4058   5.1120   6.4408   7.1320

          k = 0.2060 0.3568 0.0000 (  4481 PWs)   bands (ev):

   -21.0742 -13.2019 -11.7649  -8.6472   0.8014   2.9032   3.7051   4.5621

          k = 0.2060 0.4361 0.0000 (  4479 PWs)   bands (ev):

   -20.0685 -14.4984 -12.5924  -7.5347  -0.7028   4.3257   5.0914   6.0312

          k = 0.2060 0.5154 0.0000 (  4497 PWs)   bands (ev):

   -18.9104 -15.9446 -13.0203  -6.3789  -2.1198   5.9992   6.5429   6.9124

          k = 0.2060 0.5947 0.0000 (  4494 PWs)   bands (ev):

   -17.9559 -17.0104 -13.1542  -5.7168  -2.8729   6.8324   7.1982   7.7803

          k = 0.2747 0.4758 0.0000 (  4469 PWs)   bands (ev):

   -19.0003 -15.2777 -13.7382  -6.3911  -1.9706   5.8631   6.3066   7.5968

          k = 0.2747 0.5551 0.0000 (  4480 PWs)   bands (ev):

   -17.8453 -16.3408 -14.2845  -5.2919  -3.1271   6.6640   7.5809   8.5791

          k = 0.3434 0.5947 0.0000 (  4449 PWs)   bands (ev):

   -16.8768 -16.8768 -14.9252  -4.1880  -4.1880   6.4633   8.8222   8.8225

     the Fermi energy is    -4.1880 ev

!    total energy              =     -22.79052204 Ry
     estimated scf accuracy    <          1.2E-11 Ry
     smearing contrib. (-TS)   =      -0.00005015 Ry
     internal energy E=F+TS    =     -22.79047189 Ry

     The total energy is F=E-TS. E is the sum of the following terms:
     one-electron contribution =    -391.70654452 Ry
     hartree contribution      =     196.48443788 Ry
     xc contribution           =      -7.03685290 Ry
     ewald contribution        =     179.46848766 Ry

     convergence has been achieved in   7 iterations

     Forces acting on atoms (cartesian axes, Ry/au):

     atom    1 type  1   force =    -0.00000000   -0.00000000    0.00000000
     atom    2 type  1   force =     0.00000000    0.00000000    0.00000000

     Total force =     0.000000     Total SCF correction =     0.000000


     Computing stress (Cartesian axis) and pressure

          total   stress  (Ry/bohr**3)                   (kbar)     P=       -7.75
  -0.00002434   0.00000000   0.00000000           -3.58        0.00        0.00
   0.00000000  -0.00002434   0.00000000            0.00       -3.58        0.00
   0.00000000   0.00000000  -0.00010942            0.00        0.00      -16.10


     Writing output data file ./work/LiC477.save/
 
     init_run     :      0.13s CPU      0.15s WALL (       2 calls)
     electrons    :     11.31s CPU     12.34s WALL (       9 calls)
     update_pot   :      0.09s CPU      0.09s WALL (       7 calls)
     forces       :      0.08s CPU      0.08s WALL (       9 calls)
     stress       :      0.21s CPU      0.22s WALL (       9 calls)

     Called by init_run:
     wfcinit      :      0.10s CPU      0.11s WALL (       2 calls)
     potinit      :      0.01s CPU      0.01s WALL (       2 calls)
     hinit0       :      0.01s CPU      0.01s WALL (       2 calls)

     Called by electrons:
     c_bands      :      9.74s CPU     10.47s WALL (      77 calls)
     sum_band     :      1.39s CPU      1.49s WALL (      77 calls)
     v_of_rho     :      0.15s CPU      0.16s WALL (      83 calls)
     mix_rho      :      0.03s CPU      0.03s WALL (      77 calls)

     Called by c_bands:
     init_us_2    :      0.09s CPU      0.09s WALL (    4698 calls)
     cegterg      :      9.50s CPU     10.20s WALL (    2080 calls)

     Called by *egterg:
     cdiaghg      :      0.84s CPU      0.90s WALL (    9555 calls)
     h_psi        :      8.06s CPU      8.66s WALL (    9880 calls)
     g_psi        :      0.02s CPU      0.02s WALL (    7746 calls)

     Called by h_psi:
     h_psi:calbec :      0.30s CPU      0.32s WALL (    9880 calls)
     vloc_psi     :      7.59s CPU      8.17s WALL (    9880 calls)
     add_vuspsi   :      0.08s CPU      0.08s WALL (    9880 calls)

     General routines
     calbec       :      0.35s CPU      0.37s WALL (   11095 calls)
     fft          :      0.14s CPU      0.14s WALL (     903 calls)
     ffts         :      0.01s CPU      0.01s WALL (      77 calls)
     fftw         :      8.38s CPU      9.01s WALL (  121710 calls)
 
     Parallel routines
     fft_scatt_xy :      0.56s CPU      0.60s WALL (  122690 calls)
     fft_scatt_yz :      4.87s CPU      5.22s WALL (  122690 calls)
 
     PWSCF        :     11.91s CPU     13.21s WALL

 
   This run was terminated on:  14:16:12  19Jan2024            

=------------------------------------------------------------------------------=
   JOB DONE.
=------------------------------------------------------------------------------=
