
     Program PWSCF v.6.7MaX starts on 19Jan2024 at 14:15:45 

     This program is part of the open-source Quantum ESPRESSO suite
     for quantum simulation of materials; please cite
         "P. Giannozzi et al., J. Phys.:Condens. Matter 21 395502 (2009);
         "P. Giannozzi et al., J. Phys.:Condens. Matter 29 465901 (2017);
          URL http://www.quantum-espresso.org", 
     in publications or presentations arising from this work. More details at
     http://www.quantum-espresso.org/quote

     Parallel version (MPI), running on    32 processors

     MPI processes distributed on     1 nodes
     R & G space division:  proc/nbgrp/npool/nimage =      32
     Waiting for input...
     Reading input from standard input

     Current dimensions of program PWSCF are:
     Max number of different atomic species (ntypx) = 10
     Max number of k-points (npk) =  40000
     Max angular momentum in pseudopotentials (lmaxx) =  3
     Message from routine read_pp_mesh:
     mesh size missing, using the one in header

     Subspace diagonalization in iterative solution of the eigenvalue problem:
     a serial algorithm will be used

 
     Parallelization info
     --------------------
     sticks:   dense  smooth     PW     G-vecs:    dense   smooth      PW
     Min           9       9      3                 1161     1161     181
     Max          10      10      4                 1210     1210     223
     Sum         313     313     97                38067    38067    6679
 


     bravais-lattice index     =            4
     lattice parameter (alat)  =       4.7600  a.u.
     unit-cell volume          =     794.6933 (a.u.)^3
     number of atoms/cell      =            2
     number of atomic types    =            1
     number of electrons       =         8.00
     number of Kohn-Sham states=            8
     kinetic-energy cutoff     =      50.0000  Ry
     charge density cutoff     =     200.0000  Ry
     scf convergence threshold =      1.0E-08
     mixing beta               =       0.7000
     number of iterations used =            8  plain     mixing
     energy convergence thresh.=      1.0E-04
     force convergence thresh. =      1.0E-08
     press convergence thresh. =      1.0E-03
     Exchange-correlation= PBE
                           (   1   4   3   4   0   0   0)
     nstep                     =           50


     celldm(1)=   4.760000  celldm(2)=   0.000000  celldm(3)=   8.508403
     celldm(4)=   0.000000  celldm(5)=   0.000000  celldm(6)=   0.000000

     crystal axes: (cart. coord. in units of alat)
               a(1) = (   1.000000   0.000000   0.000000 )  
               a(2) = (  -0.500000   0.866025   0.000000 )  
               a(3) = (   0.000000   0.000000   8.508403 )  

     reciprocal axes: (cart. coord. in units 2 pi/alat)
               b(1) = (  1.000000  0.577350  0.000000 )  
               b(2) = (  0.000000  1.154701  0.000000 )  
               b(3) = (  0.000000  0.000000  0.117531 )  


     PseudoPot. # 1 for C  read from file:
     /home/yhkim/qe-6.7/pseudo/ONCV1/1.2/C_ONCV_PBE-1.2.upf
     MD5 check sum: 1a5f83a7b1f58d24996abe00ed223ac6
     Pseudo is Norm-conserving, Zval =  4.0
     Generated using ONCVPSP code by D. R. Hamann
     Using radial grid of  602 points,  4 beta functions with: 
                l(1) =   0
                l(2) =   0
                l(3) =   1
                l(4) =   1

     atomic species   valence    mass     pseudopotential
        C              4.00    12.01070     C ( 1.00)

     24 Sym. Ops., with inversion, found



   Cartesian axes

     site n.     atom                  positions (alat units)
         1           C   tau(   1) = (  -0.0000000   0.5773503   4.2542017  )
         2           C   tau(   2) = (   0.5000000   0.2886751   4.2542017  )

     number of k points=    27  Methfessel-Paxton smearing, width (Ry)=  0.0100
                       cart. coord. in units 2pi/alat
        k(    1) = (   0.0000000   0.0000000   0.0000000), wk =   0.0088889
        k(    2) = (   0.0000000   0.0769800   0.0000000), wk =   0.0533333
        k(    3) = (   0.0000000   0.1539601   0.0000000), wk =   0.0533333
        k(    4) = (   0.0000000   0.2309401   0.0000000), wk =   0.0533333
        k(    5) = (   0.0000000   0.3079201   0.0000000), wk =   0.0533333
        k(    6) = (   0.0000000   0.3849002   0.0000000), wk =   0.0533333
        k(    7) = (   0.0000000   0.4618802   0.0000000), wk =   0.0533333
        k(    8) = (   0.0000000   0.5388603   0.0000000), wk =   0.0533333
        k(    9) = (   0.0666667   0.1154701   0.0000000), wk =   0.0533333
        k(   10) = (   0.0666667   0.1924501   0.0000000), wk =   0.1066667
        k(   11) = (   0.0666667   0.2694301   0.0000000), wk =   0.1066667
        k(   12) = (   0.0666667   0.3464102   0.0000000), wk =   0.1066667
        k(   13) = (   0.0666667   0.4233902   0.0000000), wk =   0.1066667
        k(   14) = (   0.0666667   0.5003702   0.0000000), wk =   0.1066667
        k(   15) = (   0.0666667   0.5773503   0.0000000), wk =   0.0533333
        k(   16) = (   0.1333333   0.2309401   0.0000000), wk =   0.0533333
        k(   17) = (   0.1333333   0.3079201   0.0000000), wk =   0.1066667
        k(   18) = (   0.1333333   0.3849002   0.0000000), wk =   0.1066667
        k(   19) = (   0.1333333   0.4618802   0.0000000), wk =   0.1066667
        k(   20) = (   0.1333333   0.5388603   0.0000000), wk =   0.1066667
        k(   21) = (   0.2000000   0.3464102   0.0000000), wk =   0.0533333
        k(   22) = (   0.2000000   0.4233902   0.0000000), wk =   0.1066667
        k(   23) = (   0.2000000   0.5003702   0.0000000), wk =   0.1066667
        k(   24) = (   0.2000000   0.5773503   0.0000000), wk =   0.0533333
        k(   25) = (   0.2666667   0.4618802   0.0000000), wk =   0.0533333
        k(   26) = (   0.2666667   0.5388603   0.0000000), wk =   0.1066667
        k(   27) = (   0.3333333   0.5773503   0.0000000), wk =   0.0177778

     Dense  grid:    38067 G-vectors     FFT dimensions: (  24,  24, 192)

     Estimated max dynamical RAM per process >       2.02 MB

     Estimated total dynamical RAM >      64.51 MB
 ----2D----2D----2D----2D----2D----2D----2D----2D----2D----2D----2D----2D
  The code is running with the 2D cutoff
  Please refer to:
  Sohier, T., Calandra, M., & Mauri, F. (2017), 
  Density functional perturbation theory for gated two-dimensional heterostructu
 res:
  Theoretical developments and application to flexural phonons in graphene.
  Physical Review B, 96(7), 75448. https://doi.org/10.1103/PhysRevB.96.075448
 ----2D----2D----2D----2D----2D----2D----2D----2D----2D----2D----2D----2D

     Initial potential from superposition of free atoms

     starting charge    7.98607, renormalised to    8.00000

     negative rho (up, down):  1.186E-04 0.000E+00
     Starting wfcs are random

     total cpu time spent up to now is        0.1 secs

     Self-consistent Calculation

     iteration #  1     ecut=    50.00 Ry     beta= 0.70
     Davidson diagonalization with overlap
     ethr =  1.00E-02,  avg # of iterations = 11.8

     negative rho (up, down):  3.891E-08 0.000E+00

     total cpu time spent up to now is        0.5 secs

     total energy              =     -22.76286660 Ry
     estimated scf accuracy    <       0.13791198 Ry

     iteration #  2     ecut=    50.00 Ry     beta= 0.70
     Davidson diagonalization with overlap
     ethr =  1.72E-03,  avg # of iterations =  2.2

     total cpu time spent up to now is        0.7 secs

     total energy              =     -22.78563279 Ry
     estimated scf accuracy    <       0.00212094 Ry

     iteration #  3     ecut=    50.00 Ry     beta= 0.70
     Davidson diagonalization with overlap
     ethr =  2.65E-05,  avg # of iterations =  9.1

     total cpu time spent up to now is        0.9 secs

     total energy              =     -22.78678185 Ry
     estimated scf accuracy    <       0.00012874 Ry

     iteration #  4     ecut=    50.00 Ry     beta= 0.70
     Davidson diagonalization with overlap
     c_bands:  1 eigenvalues not converged
     c_bands:  1 eigenvalues not converged
     ethr =  1.61E-06,  avg # of iterations =  6.9

     total cpu time spent up to now is        1.1 secs

     total energy              =     -22.78681938 Ry
     estimated scf accuracy    <       0.00000152 Ry

     iteration #  5     ecut=    50.00 Ry     beta= 0.70
     Davidson diagonalization with overlap
     ethr =  1.90E-08,  avg # of iterations =  4.6

     total cpu time spent up to now is        1.3 secs

     total energy              =     -22.78682207 Ry
     estimated scf accuracy    <       0.00000008 Ry

     iteration #  6     ecut=    50.00 Ry     beta= 0.70
     Davidson diagonalization with overlap
     ethr =  9.87E-10,  avg # of iterations =  2.1

     total cpu time spent up to now is        1.4 secs

     End of self-consistent calculation

          k = 0.0000 0.0000 0.0000 (  4831 PWs)   bands (ev):

   -23.4623 -11.6289  -7.5225  -7.5225  -0.9669  -0.2010   0.5920   0.9462

          k = 0.0000 0.0770 0.0000 (  4795 PWs)   bands (ev):

   -23.3613 -11.5098  -7.9372  -7.7293  -0.8301  -0.0627   0.7315   1.0848

          k = 0.0000 0.1540 0.0000 (  4787 PWs)   bands (ev):

   -23.0593 -11.1538  -9.0351  -8.2570  -0.4200   0.3519   1.1498   1.5007

          k = 0.0000 0.2309 0.0000 (  4775 PWs)   bands (ev):

   -22.5584 -10.5691 -10.5344  -8.9183   0.2628   1.0401   1.8468   2.1905

          k = 0.0000 0.3079 0.0000 (  4767 PWs)   bands (ev):

   -21.8630 -12.2057  -9.7706  -9.5648   1.2159   1.8550   2.1381   2.8105

          k = 0.0000 0.3849 0.0000 (  4735 PWs)   bands (ev):

   -20.9815 -13.9029 -10.1027  -8.7896   0.2455   2.4115   2.7139   3.2574

          k = 0.0000 0.4619 0.0000 (  4730 PWs)   bands (ev):

   -19.9332 -15.5317 -10.4836  -7.7111  -1.3864   2.4545   3.9382   4.7546

          k = 0.0000 0.5389 0.0000 (  4748 PWs)   bands (ev):

   -18.8159 -16.9491 -10.6802  -6.8167  -2.5781   2.3406   5.6697   6.4963

          k = 0.0667 0.1155 0.0000 (  4783 PWs)   bands (ev):

   -23.1599 -11.2716  -8.6461  -8.1452  -0.5567   0.2139   1.0105   1.3621

          k = 0.0667 0.1925 0.0000 (  4772 PWs)   bands (ev):

   -22.7584 -10.8013  -9.8596  -8.8259  -0.0099   0.7657   1.5683   1.9158

          k = 0.0667 0.2694 0.0000 (  4770 PWs)   bands (ev):

   -22.1602 -11.3874 -10.1085  -9.5402   0.8087   1.5857   2.4043   2.6564

          k = 0.0667 0.3464 0.0000 (  4749 PWs)   bands (ev):

   -21.3715 -13.0412 -10.1647  -9.2149   1.0249   1.8954   2.7052   3.2688

          k = 0.0667 0.4234 0.0000 (  4725 PWs)   bands (ev):

   -20.4043 -14.6910 -10.6404  -8.1688  -0.6451   2.9835   3.2877   4.0659

          k = 0.0667 0.5004 0.0000 (  4738 PWs)   bands (ev):

   -19.2966 -16.2313 -10.9370  -7.1196  -2.1068   2.8390   4.8726   5.6791

          k = 0.0667 0.5774 0.0000 (  4736 PWs)   bands (ev):

   -18.4427 -17.2329 -11.0370  -6.5712  -2.7978   2.7812   6.6326   6.7958

          k = 0.1333 0.2309 0.0000 (  4765 PWs)   bands (ev):

   -22.2596 -10.9373 -10.2216  -9.7268   0.6730   1.4535   2.2659   2.6078

          k = 0.1333 0.3079 0.0000 (  4738 PWs)   bands (ev):

   -21.5678 -12.2841 -10.5858  -9.4298   1.5241   1.6265   2.4151   3.2414

          k = 0.1333 0.3849 0.0000 (  4736 PWs)   bands (ev):

   -20.6919 -13.8101 -11.2324  -8.4562  -0.0376   2.8456   3.6367   4.3422

          k = 0.1333 0.4619 0.0000 (  4724 PWs)   bands (ev):

   -19.6527 -15.3488 -11.6607  -7.3771  -1.5588   4.1055   4.3628   5.1001

          k = 0.1333 0.5389 0.0000 (  4734 PWs)   bands (ev):

   -18.5478 -16.7210 -11.8751  -6.4612  -2.7146   4.0156   6.0487   6.6909

          k = 0.2000 0.3464 0.0000 (  4733 PWs)   bands (ev):

   -20.7886 -13.2873 -11.6851  -8.5533   0.2074   2.7120   3.4882   4.3559

          k = 0.2000 0.4234 0.0000 (  4732 PWs)   bands (ev):

   -19.8368 -14.5196 -12.4711  -7.5221  -1.1792   4.0562   4.7905   5.7354

          k = 0.2000 0.5004 0.0000 (  4728 PWs)   bands (ev):

   -18.7518 -15.8648 -12.8914  -6.4524  -2.4806   5.5916   5.7966   6.1408

          k = 0.2000 0.5774 0.0000 (  4728 PWs)   bands (ev):

   -17.9142 -16.8038 -13.0229  -5.8456  -3.1686   5.6700   6.7458   7.2772

          k = 0.2667 0.4619 0.0000 (  4729 PWs)   bands (ev):

   -18.8309 -15.3061 -13.5102  -6.4619  -2.3580   5.5043   5.9237   7.2186

          k = 0.2667 0.5389 0.0000 (  4735 PWs)   bands (ev):

   -17.7643 -16.2908 -14.0266  -5.4462  -3.4277   6.2778   7.0677   7.4324

          k = 0.3333 0.5774 0.0000 (  4740 PWs)   bands (ev):

   -16.8635 -16.8635 -14.5557  -4.4215  -4.4215   6.1085   7.9899   7.9899

     the Fermi energy is    -4.4215 ev

!    total energy              =     -22.78682209 Ry
     estimated scf accuracy    <          1.5E-09 Ry
     smearing contrib. (-TS)   =      -0.00005015 Ry
     internal energy E=F+TS    =     -22.78677194 Ry

     The total energy is F=E-TS. E is the sum of the following terms:
     one-electron contribution =    -370.49506344 Ry
     hartree contribution      =     185.82542127 Ry
     xc contribution           =      -6.92002625 Ry
     ewald contribution        =     168.80289647 Ry

     convergence has been achieved in   6 iterations

     Forces acting on atoms (cartesian axes, Ry/au):

     atom    1 type  1   force =     0.00000000    0.00000000    0.00000000
     atom    2 type  1   force =     0.00000000    0.00000000    0.00000000

     Total force =     0.000000     Total SCF correction =     0.000000


     Computing stress (Cartesian axis) and pressure

          total   stress  (Ry/bohr**3)                   (kbar)     P=      -39.28
  -0.00034995  -0.00000000   0.00000000          -51.48       -0.00        0.00
  -0.00000000  -0.00034995   0.00000000           -0.00      -51.48        0.00
   0.00000000   0.00000000  -0.00010119            0.00        0.00      -14.89


     BFGS Geometry Optimization
     Energy error            =      0.0E+00
     Gradient error          =      0.0E+00
     Cell gradient error     =      3.5E-04


     number of scf cycles    =   1
     number of bfgs steps    =   0

     enthalpy new            =     -22.7868220920 Ry

     new trust radius        =       0.0493261950 bohr
     new conv_thr            =       0.0000000100 Ry

     new unit-cell volume =    780.84894 a.u.^3 (   115.70987 Ang^3 )
     density =      0.34473 g/cm^3

CELL_PARAMETERS (alat=  4.76000000)
   0.991251213  -0.000000000   0.000000000
  -0.495625606   0.858448732   0.000000000
   0.000000000   0.000000000   8.508403361

ATOMIC_POSITIONS (crystal)
C             0.3333333333        0.6666666667        0.5000000000
C             0.6666666667        0.3333333333        0.5000000000



     Writing output data file ./work/LiC476.save/
     NEW-OLD atomic charge density approx. for the potential

     negative rho (up, down):  4.438E-06 0.000E+00
     extrapolated charge    7.85841, renormalised to    8.00000

     total cpu time spent up to now is        1.5 secs

     Self-consistent Calculation

     iteration #  1     ecut=    50.00 Ry     beta= 0.70
     Davidson diagonalization with overlap
     c_bands:  2 eigenvalues not converged
     c_bands:  2 eigenvalues not converged
     c_bands:  3 eigenvalues not converged
     c_bands:  1 eigenvalues not converged
     c_bands:  2 eigenvalues not converged
     c_bands:  1 eigenvalues not converged
     ethr =  1.00E-06,  avg # of iterations = 15.3

     negative rho (up, down):  2.654E-07 0.000E+00

     total cpu time spent up to now is        1.9 secs

     total energy              =     -22.78141318 Ry
     estimated scf accuracy    <       0.00503202 Ry

     iteration #  2     ecut=    50.00 Ry     beta= 0.70
     Davidson diagonalization with overlap
     ethr =  6.29E-05,  avg # of iterations =  9.7

     negative rho (up, down):  4.533E-08 0.000E+00

     total cpu time spent up to now is        2.2 secs

     total energy              =     -22.79123143 Ry
     estimated scf accuracy    <       0.00459918 Ry

     iteration #  3     ecut=    50.00 Ry     beta= 0.70
     Davidson diagonalization with overlap
     ethr =  5.75E-05,  avg # of iterations =  1.0

     total cpu time spent up to now is        2.3 secs

     total energy              =     -22.79086968 Ry
     estimated scf accuracy    <       0.00102777 Ry

     iteration #  4     ecut=    50.00 Ry     beta= 0.70
     Davidson diagonalization with overlap
     ethr =  1.28E-05,  avg # of iterations =  2.8

     total cpu time spent up to now is        2.4 secs

     total energy              =     -22.79098559 Ry
     estimated scf accuracy    <       0.00004590 Ry

     iteration #  5     ecut=    50.00 Ry     beta= 0.70
     Davidson diagonalization with overlap
     ethr =  5.74E-07,  avg # of iterations =  3.2

     total cpu time spent up to now is        2.6 secs

     total energy              =     -22.79099261 Ry
     estimated scf accuracy    <       0.00004467 Ry

     iteration #  6     ecut=    50.00 Ry     beta= 0.70
     Davidson diagonalization with overlap
     ethr =  5.58E-07,  avg # of iterations =  1.0

     total cpu time spent up to now is        2.7 secs

     total energy              =     -22.79104000 Ry
     estimated scf accuracy    <       0.00005260 Ry

     iteration #  7     ecut=    50.00 Ry     beta= 0.70
     Davidson diagonalization with overlap
     ethr =  5.58E-07,  avg # of iterations =  2.0

     total cpu time spent up to now is        2.8 secs

     total energy              =     -22.79094538 Ry
     estimated scf accuracy    <       0.00020463 Ry

     iteration #  8     ecut=    50.00 Ry     beta= 0.70
     Davidson diagonalization with overlap
     ethr =  5.58E-07,  avg # of iterations =  2.8

     total cpu time spent up to now is        3.0 secs

     total energy              =     -22.79096803 Ry
     estimated scf accuracy    <       0.00000606 Ry

     iteration #  9     ecut=    50.00 Ry     beta= 0.70
     Davidson diagonalization with overlap
     ethr =  7.58E-08,  avg # of iterations =  2.0

     total cpu time spent up to now is        3.1 secs

     total energy              =     -22.79096863 Ry
     estimated scf accuracy    <       0.00000400 Ry

     iteration # 10     ecut=    50.00 Ry     beta= 0.70
     Davidson diagonalization with overlap
     ethr =  5.00E-08,  avg # of iterations =  1.0

     total cpu time spent up to now is        3.2 secs

     total energy              =     -22.79096880 Ry
     estimated scf accuracy    <       0.00000012 Ry

     iteration # 11     ecut=    50.00 Ry     beta= 0.70
     Davidson diagonalization with overlap
     ethr =  1.44E-09,  avg # of iterations =  2.0

     total cpu time spent up to now is        3.3 secs

     total energy              =     -22.79096877 Ry
     estimated scf accuracy    <       0.00000008 Ry

     iteration # 12     ecut=    50.00 Ry     beta= 0.70
     Davidson diagonalization with overlap
     ethr =  9.40E-10,  avg # of iterations =  2.0

     total cpu time spent up to now is        3.4 secs

     total energy              =     -22.79096879 Ry
     estimated scf accuracy    <       0.00000001 Ry

     iteration # 13     ecut=    50.00 Ry     beta= 0.70
     Davidson diagonalization with overlap
     ethr =  1.78E-10,  avg # of iterations =  1.6

     total cpu time spent up to now is        3.6 secs

     End of self-consistent calculation

          k = 0.0000 0.0000 0.0000 (  4831 PWs)   bands (ev):

   -23.5954 -11.7277  -7.4478  -7.4478  -0.9719  -0.2010   0.5910   0.9452

          k = 0.0000 0.0777 0.0000 (  4795 PWs)   bands (ev):

   -23.4929 -11.6060  -7.8657  -7.6605  -0.8328  -0.0602   0.7329   1.0864

          k = 0.0000 0.1553 0.0000 (  4787 PWs)   bands (ev):

   -23.1861 -11.2422  -8.9743  -8.2025  -0.4156   0.3620   1.1587   1.5098

          k = 0.0000 0.2330 0.0000 (  4775 PWs)   bands (ev):

   -22.6771 -10.6445 -10.4913  -8.8807   0.2792   1.0629   1.8681   2.2125

          k = 0.0000 0.3106 0.0000 (  4767 PWs)   bands (ev):

   -21.9705 -12.1853  -9.8279  -9.5429   1.2492   1.9629   2.2964   2.8568

          k = 0.0000 0.3883 0.0000 (  4735 PWs)   bands (ev):

   -21.0740 -13.9080 -10.0936  -8.8239   0.4200   2.4787   3.0171   3.3224

          k = 0.0000 0.4660 0.0000 (  4730 PWs)   bands (ev):

   -20.0057 -15.5642 -10.4832  -7.7187  -1.2589   2.7743   4.0229   4.8476

          k = 0.0000 0.5436 0.0000 (  4748 PWs)   bands (ev):

   -18.8555 -17.0185 -10.6843  -6.7994  -2.4861   2.6655   5.7841   6.6242

          k = 0.0673 0.1165 0.0000 (  4783 PWs)   bands (ev):

   -23.2882 -11.3626  -8.5800  -8.0879  -0.5546   0.2214   1.0168   1.3688

          k = 0.0673 0.1941 0.0000 (  4772 PWs)   bands (ev):

   -22.8803 -10.8819  -9.8059  -8.7860   0.0017   0.7834   1.5847   1.9326

          k = 0.0673 0.2718 0.0000 (  4770 PWs)   bands (ev):

   -22.2725 -11.3534 -10.1736  -9.5167   0.8347   1.6194   2.4357   2.7532

          k = 0.0673 0.3495 0.0000 (  4749 PWs)   bands (ev):

   -21.4707 -13.0314 -10.1550  -9.2594   1.2237   1.9409   2.7609   3.5247

          k = 0.0673 0.4271 0.0000 (  4725 PWs)   bands (ev):

   -20.4865 -14.7074 -10.6408  -8.1882  -0.4939   3.2313   3.4340   4.1458

          k = 0.0673 0.5048 0.0000 (  4738 PWs)   bands (ev):

   -19.3546 -16.2779 -10.9436  -7.1117  -1.9980   3.1671   4.9729   5.7907

          k = 0.0673 0.5824 0.0000 (  4736 PWs)   bands (ev):

   -18.4611 -17.3211 -11.0457  -6.5471  -2.7105   3.1115   6.7681   6.9290

          k = 0.1345 0.2330 0.0000 (  4765 PWs)   bands (ev):

   -22.3736 -10.8913 -10.2893  -9.7100   0.6966   1.4838   2.2945   2.6358

          k = 0.1345 0.3106 0.0000 (  4738 PWs)   bands (ev):

   -21.6704 -12.2551 -10.5871  -9.4794   1.6671   1.7429   2.4645   3.2876

          k = 0.1345 0.3883 0.0000 (  4736 PWs)   bands (ev):

   -20.7796 -13.8059 -11.2441  -8.4830   0.1367   2.9080   3.7085   4.5486

          k = 0.1345 0.4660 0.0000 (  4724 PWs)   bands (ev):

   -19.7207 -15.3728 -11.6787  -7.3771  -1.4279   4.3527   4.5465   5.2009

          k = 0.1345 0.5436 0.0000 (  4734 PWs)   bands (ev):

   -18.5841 -16.7811 -11.8964  -6.4361  -2.6178   4.3599   6.1712   6.8294

          k = 0.2018 0.3495 0.0000 (  4733 PWs)   bands (ev):

   -20.8781 -13.2624 -11.7145  -8.5825   0.3926   2.7720   3.5568   4.4222

          k = 0.2018 0.4271 0.0000 (  4732 PWs)   bands (ev):

   -19.9093 -14.5141 -12.5136  -7.5265  -1.0309   4.1407   4.8852   5.8335

          k = 0.2018 0.5048 0.0000 (  4728 PWs)   bands (ev):

   -18.8011 -15.8901 -12.9365  -6.4294  -2.3680   5.7361   6.1305   6.2668

          k = 0.2018 0.5824 0.0000 (  4728 PWs)   bands (ev):

   -17.9284 -16.8671 -13.0686  -5.8056  -3.0762   6.0349   6.8869   7.4354

          k = 0.2690 0.4660 0.0000 (  4729 PWs)   bands (ev):

   -18.8838 -15.2988 -13.5852  -6.4402  -2.2374   5.6168   6.0436   7.3341

          k = 0.2690 0.5436 0.0000 (  4735 PWs)   bands (ev):

   -17.7898 -16.3065 -14.1118  -5.3984  -3.3339   6.3986   7.2377   7.7878

          k = 0.3363 0.5824 0.0000 (  4740 PWs)   bands (ev):

   -16.8692 -16.8692 -14.6731  -4.3493  -4.3493   6.2197   8.2619   8.2619

     the Fermi energy is    -4.3493 ev

!    total energy              =     -22.79096879 Ry
     estimated scf accuracy    <          2.3E-09 Ry
     smearing contrib. (-TS)   =      -0.00005015 Ry
     internal energy E=F+TS    =     -22.79091864 Ry

     The total energy is F=E-TS. E is the sum of the following terms:
     one-electron contribution =    -377.13727574 Ry
     hartree contribution      =     189.16298890 Ry
     xc contribution           =      -6.95690997 Ry
     ewald contribution        =     172.14027817 Ry

     convergence has been achieved in  13 iterations

     Forces acting on atoms (cartesian axes, Ry/au):

     atom    1 type  1   force =     0.00000000    0.00000000    0.00000000
     atom    2 type  1   force =     0.00000000    0.00000000    0.00000000

     Total force =     0.000000     Total SCF correction =     0.000000


     Computing stress (Cartesian axis) and pressure

          total   stress  (Ry/bohr**3)                   (kbar)     P=      -29.20
  -0.00024750  -0.00000000   0.00000000          -36.41       -0.00        0.00
  -0.00000000  -0.00024750   0.00000000           -0.00      -36.41        0.00
  -0.00000000  -0.00000000  -0.00010048           -0.00       -0.00      -14.78

     Energy error            =      4.1E-03
     Gradient error          =      0.0E+00
     Cell gradient error     =      2.5E-04


     number of scf cycles    =   2
     number of bfgs steps    =   1

     enthalpy old            =     -22.7868220920 Ry
     enthalpy new            =     -22.7909687876 Ry

     CASE: enthalpy_new < enthalpy_old

     new trust radius        =       0.0542588145 bohr
     new conv_thr            =            1.0E-10 Ry

     new unit-cell volume =    765.76063 a.u.^3 (   113.47402 Ang^3 )
     density =      0.35152 g/cm^3

CELL_PARAMETERS (alat=  4.76000000)
   0.981627547  -0.000000000   0.000000000
  -0.490813774   0.850114393   0.000000000
   0.000000000   0.000000000   8.508403361

ATOMIC_POSITIONS (crystal)
C             0.3333333333        0.6666666667        0.5000000000
C             0.6666666667        0.3333333333        0.5000000000



     Writing output data file ./work/LiC476.save/
     NEW-OLD atomic charge density approx. for the potential

     negative rho (up, down):  1.502E-06 0.000E+00
     extrapolated charge    7.84265, renormalised to    8.00000

     total cpu time spent up to now is        3.6 secs

     Self-consistent Calculation

     iteration #  1     ecut=    50.00 Ry     beta= 0.70
     Davidson diagonalization with overlap
     c_bands:  2 eigenvalues not converged
     c_bands:  3 eigenvalues not converged
     c_bands:  1 eigenvalues not converged
     c_bands:  2 eigenvalues not converged
     c_bands:  1 eigenvalues not converged
     ethr =  1.00E-06,  avg # of iterations = 15.6

     negative rho (up, down):  2.368E-08 0.000E+00

     total cpu time spent up to now is        4.0 secs

     total energy              =     -22.78201395 Ry
     estimated scf accuracy    <       0.00617633 Ry

     iteration #  2     ecut=    50.00 Ry     beta= 0.70
     Davidson diagonalization with overlap
     ethr =  7.72E-05,  avg # of iterations =  9.8

     total cpu time spent up to now is        4.3 secs

     total energy              =     -22.79411071 Ry
     estimated scf accuracy    <       0.00569931 Ry

     iteration #  3     ecut=    50.00 Ry     beta= 0.70
     Davidson diagonalization with overlap
     ethr =  7.12E-05,  avg # of iterations =  1.1

     total cpu time spent up to now is        4.4 secs

     total energy              =     -22.79365128 Ry
     estimated scf accuracy    <       0.00127035 Ry

     iteration #  4     ecut=    50.00 Ry     beta= 0.70
     Davidson diagonalization with overlap
     ethr =  1.59E-05,  avg # of iterations =  2.8

     total cpu time spent up to now is        4.6 secs

     total energy              =     -22.79380396 Ry
     estimated scf accuracy    <       0.00004376 Ry

     iteration #  5     ecut=    50.00 Ry     beta= 0.70
     Davidson diagonalization with overlap
     ethr =  5.47E-07,  avg # of iterations =  3.6

     total cpu time spent up to now is        4.7 secs

     total energy              =     -22.79381079 Ry
     estimated scf accuracy    <       0.00004103 Ry

     iteration #  6     ecut=    50.00 Ry     beta= 0.70
     Davidson diagonalization with overlap
     ethr =  5.13E-07,  avg # of iterations =  1.0

     total cpu time spent up to now is        4.8 secs

     total energy              =     -22.79379475 Ry
     estimated scf accuracy    <       0.00004723 Ry

     iteration #  7     ecut=    50.00 Ry     beta= 0.70
     Davidson diagonalization with overlap
     ethr =  5.13E-07,  avg # of iterations =  1.5

     total cpu time spent up to now is        4.9 secs

     total energy              =     -22.79379495 Ry
     estimated scf accuracy    <       0.00003006 Ry

     iteration #  8     ecut=    50.00 Ry     beta= 0.70
     Davidson diagonalization with overlap
     ethr =  3.76E-07,  avg # of iterations =  2.0

     total cpu time spent up to now is        5.0 secs

     total energy              =     -22.79378653 Ry
     estimated scf accuracy    <       0.00004088 Ry

     iteration #  9     ecut=    50.00 Ry     beta= 0.70
     Davidson diagonalization with overlap
     ethr =  3.76E-07,  avg # of iterations =  2.0

     total cpu time spent up to now is        5.2 secs

     total energy              =     -22.79378974 Ry
     estimated scf accuracy    <       0.00000013 Ry

     iteration # 10     ecut=    50.00 Ry     beta= 0.70
     Davidson diagonalization with overlap
     ethr =  1.64E-09,  avg # of iterations =  3.6

     total cpu time spent up to now is        5.3 secs

     total energy              =     -22.79378961 Ry
     estimated scf accuracy    <       0.00000192 Ry

     iteration # 11     ecut=    50.00 Ry     beta= 0.70
     Davidson diagonalization with overlap
     ethr =  1.64E-09,  avg # of iterations =  2.0

     total cpu time spent up to now is        5.4 secs

     total energy              =     -22.79378949 Ry
     estimated scf accuracy    <       0.00000045 Ry

     iteration # 12     ecut=    50.00 Ry     beta= 0.70
     Davidson diagonalization with overlap
     ethr =  1.64E-09,  avg # of iterations =  2.0

     total cpu time spent up to now is        5.6 secs

     total energy              =     -22.79378951 Ry
     estimated scf accuracy    <       0.00000002 Ry

     iteration # 13     ecut=    50.00 Ry     beta= 0.70
     Davidson diagonalization with overlap
     ethr =  2.48E-10,  avg # of iterations =  2.0

     total cpu time spent up to now is        5.7 secs

     total energy              =     -22.79378951 Ry
     estimated scf accuracy    <          1.5E-09 Ry

     iteration # 14     ecut=    50.00 Ry     beta= 0.70
     Davidson diagonalization with overlap
     ethr =  1.90E-11,  avg # of iterations =  2.0

     total cpu time spent up to now is        5.8 secs

     End of self-consistent calculation

          k = 0.0000 0.0000 0.0000 (  4831 PWs)   bands (ev):

   -23.7434 -11.8389  -7.3602  -7.3602  -0.9772  -0.2007   0.5907   0.9449

          k = 0.0000 0.0784 0.0000 (  4795 PWs)   bands (ev):

   -23.6391 -11.7143  -7.7820  -7.5796  -0.8355  -0.0570   0.7354   1.0890

          k = 0.0000 0.1568 0.0000 (  4787 PWs)   bands (ev):

   -23.3269 -11.3417  -8.9031  -8.1378  -0.4102   0.3738   1.1696   1.5209

          k = 0.0000 0.2353 0.0000 (  4775 PWs)   bands (ev):

   -22.8090 -10.7293 -10.4405  -8.8353   0.2981   1.0891   1.8930   2.2382

          k = 0.0000 0.3137 0.0000 (  4767 PWs)   bands (ev):

   -22.0897 -12.1602  -9.8923  -9.5154   1.2871   2.0411   2.5181   2.9027

          k = 0.0000 0.3921 0.0000 (  4735 PWs)   bands (ev):

   -21.1765 -13.9115 -10.0805  -8.8623   0.6172   2.5461   3.3675   3.3964

          k = 0.0000 0.4705 0.0000 (  4730 PWs)   bands (ev):

   -20.0861 -15.5985 -10.4801  -7.7266  -1.1147   3.1343   4.1208   4.9529

          k = 0.0000 0.5489 0.0000 (  4748 PWs)   bands (ev):

   -18.8990 -17.0942 -10.6861  -6.7790  -2.3824   3.0332   5.9139   6.7690

          k = 0.0679 0.1176 0.0000 (  4783 PWs)   bands (ev):

   -23.4308 -11.4650  -8.5028  -8.0200  -0.5519   0.2303   1.0249   1.3771

          k = 0.0679 0.1961 0.0000 (  4772 PWs)   bands (ev):

   -23.0158 -10.9725  -9.7430  -8.7379   0.0152   0.8037   1.6039   1.9522

          k = 0.0679 0.2745 0.0000 (  4770 PWs)   bands (ev):

   -22.3972 -11.3130 -10.2466  -9.4873   0.8645   1.6576   2.4719   2.8015

          k = 0.0679 0.3529 0.0000 (  4749 PWs)   bands (ev):

   -21.5808 -13.0183 -10.1411  -9.3092   1.4481   1.9926   2.8248   3.6206

          k = 0.0679 0.4313 0.0000 (  4725 PWs)   bands (ev):

   -20.5775 -14.7238 -10.6384  -8.2096  -0.3228   3.3689   3.7417   4.2366

          k = 0.0679 0.5097 0.0000 (  4738 PWs)   bands (ev):

   -19.4188 -16.3279 -10.9482  -7.1021  -1.8752   3.5378   5.0873   5.9171

          k = 0.0679 0.5882 0.0000 (  4736 PWs)   bands (ev):

   -18.4786 -17.4201 -11.0527  -6.5191  -2.6121   3.4854   6.9215   7.0799

          k = 0.1358 0.2353 0.0000 (  4765 PWs)   bands (ev):

   -22.5000 -10.8373 -10.3653  -9.6882   0.7238   1.5185   2.3279   2.6698

          k = 0.1358 0.3137 0.0000 (  4738 PWs)   bands (ev):

   -21.7842 -12.2206 -10.5854  -9.5351   1.7133   1.9901   2.5217   3.3406

          k = 0.1358 0.3921 0.0000 (  4736 PWs)   bands (ev):

   -20.8768 -13.7996 -11.2539  -8.5127   0.3343   2.9790   3.7901   4.6367

          k = 0.1358 0.4705 0.0000 (  4724 PWs)   bands (ev):

   -19.7959 -15.3979 -11.6958  -7.3766  -1.2797   4.4941   4.8915   5.3152

          k = 0.1358 0.5489 0.0000 (  4734 PWs)   bands (ev):

   -18.6236 -16.8469 -11.9170  -6.4069  -2.5085   4.7486   6.3103   6.9862

          k = 0.2037 0.3529 0.0000 (  4733 PWs)   bands (ev):

   -20.9773 -13.2323 -11.7447  -8.6150   0.6027   2.8402   3.6348   4.4978

          k = 0.2037 0.4313 0.0000 (  4732 PWs)   bands (ev):

   -19.9895 -14.5063 -12.5581  -7.5309  -0.8627   4.2365   4.9927   6.1785

          k = 0.2037 0.5097 0.0000 (  4728 PWs)   bands (ev):

   -18.8553 -15.9172 -12.9834  -6.4029  -2.2403   5.8745   6.4098   6.5306

          k = 0.2037 0.5882 0.0000 (  4728 PWs)   bands (ev):

   -17.9414 -16.9391 -13.1159  -5.7595  -2.9715   6.4454   7.0475   7.6133

          k = 0.2717 0.4705 0.0000 (  4729 PWs)   bands (ev):

   -18.9420 -15.2882 -13.6669  -6.4150  -2.1004   5.7441   6.1797   7.4717

          k = 0.2717 0.5489 0.0000 (  4735 PWs)   bands (ev):

   -17.8168 -16.3231 -14.2040  -5.3436  -3.2272   6.5359   7.4170   8.1933

          k = 0.3396 0.5882 0.0000 (  4740 PWs)   bands (ev):

   -16.8729 -16.8729 -14.8042  -4.2670  -4.2670   6.3459   8.5539   8.5539

     the Fermi energy is    -4.2670 ev

!    total energy              =     -22.79378951 Ry
     estimated scf accuracy    <          8.7E-11 Ry
     smearing contrib. (-TS)   =      -0.00005015 Ry
     internal energy E=F+TS    =     -22.79373936 Ry

     The total energy is F=E-TS. E is the sum of the following terms:
     one-electron contribution =    -384.65424676 Ry
     hartree contribution      =     192.94037135 Ry
     xc contribution           =      -6.99838151 Ry
     ewald contribution        =     175.91851756 Ry

     convergence has been achieved in  14 iterations

     Forces acting on atoms (cartesian axes, Ry/au):

     atom    1 type  1   force =     0.00000000    0.00000000    0.00000000
     atom    2 type  1   force =     0.00000000    0.00000000    0.00000000

     Total force =     0.000000     Total SCF correction =     0.000000


     Computing stress (Cartesian axis) and pressure

          total   stress  (Ry/bohr**3)                   (kbar)     P=      -17.09
  -0.00012430  -0.00000000   0.00000000          -18.29       -0.00        0.00
  -0.00000000  -0.00012430   0.00000000           -0.00      -18.29        0.00
  -0.00000000  -0.00000000  -0.00009986           -0.00       -0.00      -14.69

     Energy error            =      2.8E-03
     Gradient error          =      0.0E+00
     Cell gradient error     =      1.2E-04


     number of scf cycles    =   3
     number of bfgs steps    =   2

     enthalpy old            =     -22.7909687876 Ry
     enthalpy new            =     -22.7937895130 Ry

     CASE: enthalpy_new < enthalpy_old

     new trust radius        =       0.0536881596 bohr
     new conv_thr            =            1.0E-10 Ry

     new unit-cell volume =    750.97590 a.u.^3 (   111.28315 Ang^3 )
     density =      0.35844 g/cm^3

CELL_PARAMETERS (alat=  4.76000000)
   0.972105096  -0.000000000   0.000000000
  -0.486052548   0.841867709   0.000000000
   0.000000000   0.000000000   8.508403361

ATOMIC_POSITIONS (crystal)
C             0.3333333333        0.6666666667        0.5000000000
C             0.6666666667        0.3333333333        0.5000000000



     Writing output data file ./work/LiC476.save/
     NEW-OLD atomic charge density approx. for the potential

     negative rho (up, down):  2.479E-06 0.000E+00
     extrapolated charge    7.84278, renormalised to    8.00000

     total cpu time spent up to now is        5.9 secs

     Self-consistent Calculation

     iteration #  1     ecut=    50.00 Ry     beta= 0.70
     Davidson diagonalization with overlap
     c_bands:  1 eigenvalues not converged
     c_bands:  2 eigenvalues not converged
     c_bands:  3 eigenvalues not converged
     c_bands:  1 eigenvalues not converged
     c_bands:  1 eigenvalues not converged
     c_bands:  2 eigenvalues not converged
     c_bands:  1 eigenvalues not converged
     ethr =  1.00E-06,  avg # of iterations = 15.9

     negative rho (up, down):  6.439E-08 0.000E+00

     total cpu time spent up to now is        6.3 secs

     total energy              =     -22.78270075 Ry
     estimated scf accuracy    <       0.00624015 Ry

     iteration #  2     ecut=    50.00 Ry     beta= 0.70
     Davidson diagonalization with overlap
     ethr =  7.80E-05,  avg # of iterations = 10.4

     total cpu time spent up to now is        6.6 secs

     total energy              =     -22.79498449 Ry
     estimated scf accuracy    <       0.00581511 Ry

     iteration #  3     ecut=    50.00 Ry     beta= 0.70
     Davidson diagonalization with overlap
     ethr =  7.27E-05,  avg # of iterations =  1.1

     total cpu time spent up to now is        6.7 secs

     total energy              =     -22.79451918 Ry
     estimated scf accuracy    <       0.00129806 Ry

     iteration #  4     ecut=    50.00 Ry     beta= 0.70
     Davidson diagonalization with overlap
     ethr =  1.62E-05,  avg # of iterations =  3.4

     total cpu time spent up to now is        6.8 secs

     total energy              =     -22.79467301 Ry
     estimated scf accuracy    <       0.00004829 Ry

     iteration #  5     ecut=    50.00 Ry     beta= 0.70
     Davidson diagonalization with overlap
     ethr =  6.04E-07,  avg # of iterations =  3.2

     total cpu time spent up to now is        7.0 secs

     total energy              =     -22.79468411 Ry
     estimated scf accuracy    <       0.00004517 Ry

     iteration #  6     ecut=    50.00 Ry     beta= 0.70
     Davidson diagonalization with overlap
     ethr =  5.65E-07,  avg # of iterations =  1.0

     total cpu time spent up to now is        7.1 secs

     total energy              =     -22.79467032 Ry
     estimated scf accuracy    <       0.00006010 Ry

     iteration #  7     ecut=    50.00 Ry     beta= 0.70
     Davidson diagonalization with overlap
     ethr =  5.65E-07,  avg # of iterations =  1.3

     total cpu time spent up to now is        7.2 secs

     total energy              =     -22.79465730 Ry
     estimated scf accuracy    <       0.00005622 Ry

     iteration #  8     ecut=    50.00 Ry     beta= 0.70
     Davidson diagonalization with overlap
     ethr =  5.65E-07,  avg # of iterations =  1.0

     total cpu time spent up to now is        7.3 secs

     total energy              =     -22.79465771 Ry
     estimated scf accuracy    <       0.00001322 Ry

     iteration #  9     ecut=    50.00 Ry     beta= 0.70
     Davidson diagonalization with overlap
     ethr =  1.65E-07,  avg # of iterations =  1.0

     total cpu time spent up to now is        7.4 secs

     total energy              =     -22.79465597 Ry
     estimated scf accuracy    <       0.00000626 Ry

     iteration # 10     ecut=    50.00 Ry     beta= 0.70
     Davidson diagonalization with overlap
     ethr =  7.83E-08,  avg # of iterations =  2.0

     total cpu time spent up to now is        7.5 secs

     total energy              =     -22.79465671 Ry
     estimated scf accuracy    <       0.00000008 Ry

     iteration # 11     ecut=    50.00 Ry     beta= 0.70
     Davidson diagonalization with overlap
     ethr =  1.04E-09,  avg # of iterations =  3.1

     total cpu time spent up to now is        7.7 secs

     total energy              =     -22.79465667 Ry
     estimated scf accuracy    <       0.00000017 Ry

     iteration # 12     ecut=    50.00 Ry     beta= 0.70
     Davidson diagonalization with overlap
     ethr =  1.04E-09,  avg # of iterations =  2.0

     total cpu time spent up to now is        7.8 secs

     total energy              =     -22.79465668 Ry
     estimated scf accuracy    <       0.00000001 Ry

     iteration # 13     ecut=    50.00 Ry     beta= 0.70
     Davidson diagonalization with overlap
     ethr =  1.84E-10,  avg # of iterations =  2.0

     total cpu time spent up to now is        7.9 secs

     total energy              =     -22.79465668 Ry
     estimated scf accuracy    <          5.5E-09 Ry

     iteration # 14     ecut=    50.00 Ry     beta= 0.70
     Davidson diagonalization with overlap
     ethr =  6.85E-11,  avg # of iterations =  1.0

     total cpu time spent up to now is        8.0 secs

     total energy              =     -22.79465668 Ry
     estimated scf accuracy    <          4.2E-10 Ry

     iteration # 15     ecut=    50.00 Ry     beta= 0.70
     Davidson diagonalization with overlap
     ethr =  5.31E-12,  avg # of iterations =  2.1

     total cpu time spent up to now is        8.1 secs

     End of self-consistent calculation

          k = 0.0000 0.0000 0.0000 (  4831 PWs)   bands (ev):

   -23.8916 -11.9519  -7.2681  -7.2681  -0.9826  -0.2005   0.5904   0.9445

          k = 0.0000 0.0792 0.0000 (  4795 PWs)   bands (ev):

   -23.7855 -11.8243  -7.6942  -7.4944  -0.8382  -0.0539   0.7380   1.0914

          k = 0.0000 0.1584 0.0000 (  4787 PWs)   bands (ev):

   -23.4679 -11.4427  -8.8286  -8.0693  -0.4047   0.3855   1.1807   1.5321

          k = 0.0000 0.2376 0.0000 (  4775 PWs)   bands (ev):

   -22.9410 -10.8154 -10.3870  -8.7865   0.3174   1.1154   1.9184   2.2641

          k = 0.0000 0.3168 0.0000 (  4767 PWs)   bands (ev):

   -22.2090 -12.1329  -9.9575  -9.4849   1.3258   2.1024   2.7581   2.9491

          k = 0.0000 0.3959 0.0000 (  4735 PWs)   bands (ev):

   -21.2792 -13.9132 -10.0648  -8.9011   0.8176   2.6122   3.4717   3.7235

          k = 0.0000 0.4751 0.0000 (  4730 PWs)   bands (ev):

   -20.1667 -15.6310 -10.4744  -7.7344  -0.9684   3.4968   4.2245   5.0599

          k = 0.0000 0.5543 0.0000 (  4748 PWs)   bands (ev):

   -18.9425 -17.1683 -10.6856  -6.7577  -2.2773   3.4080   6.0464   6.9160

          k = 0.0686 0.1188 0.0000 (  4783 PWs)   bands (ev):

   -23.5736 -11.5690  -8.4220  -7.9483  -0.5491   0.2392   1.0331   1.3853

          k = 0.0686 0.1980 0.0000 (  4772 PWs)   bands (ev):

   -23.1514 -11.0646  -9.6772  -8.6863   0.0290   0.8242   1.6236   1.9722

          k = 0.0686 0.2772 0.0000 (  4770 PWs)   bands (ev):

   -22.5220 -11.2702 -10.3208  -9.4547   0.8949   1.6960   2.5087   2.8431

          k = 0.0686 0.3564 0.0000 (  4749 PWs)   bands (ev):

   -21.6910 -13.0033 -10.1243  -9.3597   1.6756   2.0454   2.8905   3.6845

          k = 0.0686 0.4355 0.0000 (  4725 PWs)   bands (ev):

   -20.6687 -14.7386 -10.6334  -8.2311  -0.1489   3.4626   4.1002   4.3288

          k = 0.0686 0.5147 0.0000 (  4738 PWs)   bands (ev):

   -19.4832 -16.3762 -10.9503  -7.0919  -1.7505   3.9143   5.2048   6.0455

          k = 0.0686 0.5939 0.0000 (  4736 PWs)   bands (ev):

   -18.4933 -17.5205 -11.0572  -6.4899  -2.5125   3.8663   7.0778   7.2337

          k = 0.1372 0.2376 0.0000 (  4765 PWs)   bands (ev):

   -22.6267 -10.7806 -10.4425  -9.6634   0.7515   1.5535   2.3618   2.7043

          k = 0.1372 0.3168 0.0000 (  4738 PWs)   bands (ev):

   -21.8982 -12.1839 -10.5810  -9.5914   1.7605   2.2393   2.5825   3.3947

          k = 0.1372 0.3959 0.0000 (  4736 PWs)   bands (ev):

   -20.9741 -13.7916 -11.2609  -8.5427   0.5357   3.0514   3.8729   4.7187

          k = 0.1372 0.4751 0.0000 (  4724 PWs)   bands (ev):

   -19.8712 -15.4217 -11.7100  -7.3757  -1.1289   4.6066   5.2729   5.4313

          k = 0.1372 0.5543 0.0000 (  4734 PWs)   bands (ev):

   -18.6630 -16.9117 -11.9348  -6.3767  -2.3974   5.1433   6.4525   7.1457

          k = 0.2057 0.3564 0.0000 (  4733 PWs)   bands (ev):

   -21.0766 -13.1997 -11.7728  -8.6479   0.8172   2.9097   3.7139   4.5748

          k = 0.2057 0.4355 0.0000 (  4732 PWs)   bands (ev):

   -20.0697 -14.4970 -12.5999  -7.5350  -0.6909   4.3343   5.1020   6.0461

          k = 0.2057 0.5147 0.0000 (  4728 PWs)   bands (ev):

   -18.9095 -15.9437 -13.0270  -6.3754  -2.1100   6.0102   6.5556   6.9399

          k = 0.2057 0.5939 0.0000 (  4728 PWs)   bands (ev):

   -17.9517 -17.0131 -13.1598  -5.7120  -2.8648   6.8606   7.2118   7.7932

          k = 0.2743 0.4751 0.0000 (  4729 PWs)   bands (ev):

   -19.0001 -15.2751 -13.7470  -6.3890  -1.9603   5.8737   6.3186   7.6121

          k = 0.2743 0.5543 0.0000 (  4735 PWs)   bands (ev):

   -17.8431 -16.3393 -14.2934  -5.2873  -3.1182   6.6762   7.5939   8.6011

          k = 0.3429 0.5939 0.0000 (  4740 PWs)   bands (ev):

   -16.8740 -16.8740 -14.9364  -4.1826  -4.1826   6.4750   8.8364   8.8364

     the Fermi energy is    -4.1826 ev

!    total energy              =     -22.79465668 Ry
     estimated scf accuracy    <          4.7E-11 Ry
     smearing contrib. (-TS)   =      -0.00005015 Ry
     internal energy E=F+TS    =     -22.79460653 Ry

     The total energy is F=E-TS. E is the sum of the following terms:
     one-electron contribution =    -392.31787107 Ry
     hartree contribution      =     196.79186018 Ry
     xc contribution           =      -7.04038932 Ry
     ewald contribution        =     179.77179368 Ry

     convergence has been achieved in  15 iterations

     Forces acting on atoms (cartesian axes, Ry/au):

     atom    1 type  1   force =    -0.00000000   -0.00000000    0.00000000
     atom    2 type  1   force =     0.00000000    0.00000000    0.00000000

     Total force =     0.000000     Total SCF correction =     0.000000


     Computing stress (Cartesian axis) and pressure

          total   stress  (Ry/bohr**3)                   (kbar)     P=       -3.96
   0.00000922  -0.00000000   0.00000000            1.36       -0.00        0.00
  -0.00000000   0.00000922   0.00000000           -0.00        1.36        0.00
   0.00000000   0.00000000  -0.00009916            0.00        0.00      -14.59

     Energy error            =      8.7E-04
     Gradient error          =      1.8E-26
     Cell gradient error     =      9.2E-06


     number of scf cycles    =   4
     number of bfgs steps    =   3

     enthalpy old            =     -22.7937895130 Ry
     enthalpy new            =     -22.7946566831 Ry

     CASE: enthalpy_new < enthalpy_old

     new trust radius        =       0.0036728063 bohr
     new conv_thr            =            1.0E-10 Ry

     new unit-cell volume =    751.98273 a.u.^3 (   111.43234 Ang^3 )
     density =      0.35796 g/cm^3

CELL_PARAMETERS (alat=  4.76000000)
   0.972756527  -0.000000000   0.000000000
  -0.486378264   0.842431864   0.000000000
   0.000000000   0.000000000   8.508403361

ATOMIC_POSITIONS (crystal)
C             0.3333333333        0.6666666667        0.5000000000
C             0.6666666667        0.3333333333        0.5000000000



     Writing output data file ./work/LiC476.save/
     NEW-OLD atomic charge density approx. for the potential
     extrapolated charge    8.01069, renormalised to    8.00000

     total cpu time spent up to now is        8.2 secs

     Self-consistent Calculation

     iteration #  1     ecut=    50.00 Ry     beta= 0.70
     Davidson diagonalization with overlap
     c_bands:  1 eigenvalues not converged
     c_bands:  1 eigenvalues not converged
     c_bands:  1 eigenvalues not converged
     c_bands:  1 eigenvalues not converged
     c_bands:  1 eigenvalues not converged
     ethr =  1.00E-06,  avg # of iterations = 10.3

     total cpu time spent up to now is        8.5 secs

     total energy              =     -22.79459248 Ry
     estimated scf accuracy    <       0.00003521 Ry

     iteration #  2     ecut=    50.00 Ry     beta= 0.70
     Davidson diagonalization with overlap
     ethr =  4.40E-07,  avg # of iterations =  8.8

     total cpu time spent up to now is        8.7 secs

     total energy              =     -22.79466330 Ry
     estimated scf accuracy    <       0.00003308 Ry

     iteration #  3     ecut=    50.00 Ry     beta= 0.70
     Davidson diagonalization with overlap
     ethr =  4.13E-07,  avg # of iterations =  1.0

     total cpu time spent up to now is        8.8 secs

     total energy              =     -22.79466130 Ry
     estimated scf accuracy    <       0.00000763 Ry

     iteration #  4     ecut=    50.00 Ry     beta= 0.70
     Davidson diagonalization with overlap
     ethr =  9.53E-08,  avg # of iterations =  1.4

     total cpu time spent up to now is        8.9 secs

     total energy              =     -22.79466181 Ry
     estimated scf accuracy    <       0.00000135 Ry

     iteration #  5     ecut=    50.00 Ry     beta= 0.70
     Davidson diagonalization with overlap
     ethr =  1.68E-08,  avg # of iterations =  1.0

     total cpu time spent up to now is        9.0 secs

     total energy              =     -22.79466121 Ry
     estimated scf accuracy    <       0.00000142 Ry

     iteration #  6     ecut=    50.00 Ry     beta= 0.70
     Davidson diagonalization with overlap
     ethr =  1.68E-08,  avg # of iterations =  1.0

     total cpu time spent up to now is        9.2 secs

     total energy              =     -22.79466112 Ry
     estimated scf accuracy    <       0.00000028 Ry

     iteration #  7     ecut=    50.00 Ry     beta= 0.70
     Davidson diagonalization with overlap
     ethr =  3.45E-09,  avg # of iterations =  2.0

     total cpu time spent up to now is        9.3 secs

     total energy              =     -22.79466117 Ry
     estimated scf accuracy    <          4.0E-09 Ry

     iteration #  8     ecut=    50.00 Ry     beta= 0.70
     Davidson diagonalization with overlap
     ethr =  4.97E-11,  avg # of iterations =  2.7

     total cpu time spent up to now is        9.4 secs

     End of self-consistent calculation

          k = 0.0000 0.0000 0.0000 (  4831 PWs)   bands (ev):

   -23.8813 -11.9440  -7.2745  -7.2745  -0.9822  -0.2005   0.5904   0.9445

          k = 0.0000 0.0791 0.0000 (  4795 PWs)   bands (ev):

   -23.7753 -11.8165  -7.7003  -7.5003  -0.8380  -0.0541   0.7378   1.0913

          k = 0.0000 0.1583 0.0000 (  4787 PWs)   bands (ev):

   -23.4581 -11.4356  -8.8337  -8.0740  -0.4050   0.3847   1.1799   1.5313

          k = 0.0000 0.2374 0.0000 (  4775 PWs)   bands (ev):

   -22.9318 -10.8093 -10.3907  -8.7899   0.3160   1.1136   1.9167   2.2624

          k = 0.0000 0.3165 0.0000 (  4767 PWs)   bands (ev):

   -22.2007 -12.1348  -9.9529  -9.4870   1.3231   2.0985   2.7412   2.9460

          k = 0.0000 0.3957 0.0000 (  4735 PWs)   bands (ev):

   -21.2720 -13.9130 -10.0659  -8.8983   0.8038   2.6076   3.4664   3.6989

          k = 0.0000 0.4748 0.0000 (  4730 PWs)   bands (ev):

   -20.1610 -15.6288 -10.4748  -7.7338  -0.9784   3.4720   4.2171   5.0525

          k = 0.0000 0.5540 0.0000 (  4748 PWs)   bands (ev):

   -18.9394 -17.1632 -10.6856  -6.7591  -2.2845   3.3821   6.0373   6.9058

          k = 0.0685 0.1187 0.0000 (  4783 PWs)   bands (ev):

   -23.5637 -11.5617  -8.4276  -7.9532  -0.5493   0.2386   1.0326   1.3848

          k = 0.0685 0.1978 0.0000 (  4772 PWs)   bands (ev):

   -23.1420 -11.0581  -9.6817  -8.6899   0.0281   0.8228   1.6222   1.9708

          k = 0.0685 0.2770 0.0000 (  4770 PWs)   bands (ev):

   -22.5133 -11.2732 -10.3155  -9.4570   0.8928   1.6933   2.5062   2.8411

          k = 0.0685 0.3561 0.0000 (  4749 PWs)   bands (ev):

   -21.6833 -13.0043 -10.1255  -9.3561   1.6599   2.0417   2.8858   3.6800

          k = 0.0685 0.4352 0.0000 (  4725 PWs)   bands (ev):

   -20.6623 -14.7375 -10.6337  -8.2295  -0.1608   3.4565   4.0751   4.3223

          k = 0.0685 0.5144 0.0000 (  4738 PWs)   bands (ev):

   -19.4786 -16.3729 -10.9502  -7.0925  -1.7591   3.8883   5.1967   6.0366

          k = 0.0685 0.5935 0.0000 (  4736 PWs)   bands (ev):

   -18.4923 -17.5134 -11.0569  -6.4919  -2.5193   3.8399   7.0669   7.2230

          k = 0.1371 0.2374 0.0000 (  4765 PWs)   bands (ev):

   -22.6179 -10.7845 -10.4371  -9.6651   0.7496   1.5511   2.3595   2.7019

          k = 0.1371 0.3165 0.0000 (  4738 PWs)   bands (ev):

   -21.8902 -12.1864 -10.5813  -9.5874   1.7573   2.2223   2.5781   3.3910

          k = 0.1371 0.3957 0.0000 (  4736 PWs)   bands (ev):

   -20.9673 -13.7921 -11.2605  -8.5405   0.5218   3.0464   3.8671   4.7130

          k = 0.1371 0.4748 0.0000 (  4724 PWs)   bands (ev):

   -19.8659 -15.4200 -11.7090  -7.3756  -1.1392   4.5991   5.2464   5.4232

          k = 0.1371 0.5540 0.0000 (  4734 PWs)   bands (ev):

   -18.6602 -16.9072 -11.9336  -6.3787  -2.4050   5.1161   6.4426   7.1346

          k = 0.2056 0.3561 0.0000 (  4733 PWs)   bands (ev):

   -21.0697 -13.2020 -11.7709  -8.6455   0.8024   2.9049   3.7084   4.5695

          k = 0.2056 0.4352 0.0000 (  4732 PWs)   bands (ev):

   -20.0641 -14.4976 -12.5970  -7.5346  -0.7027   4.3275   5.0944   6.0385

          k = 0.2056 0.5144 0.0000 (  4728 PWs)   bands (ev):

   -18.9057 -15.9418 -13.0240  -6.3772  -2.1190   6.0009   6.5455   6.9117

          k = 0.2056 0.5935 0.0000 (  4728 PWs)   bands (ev):

   -17.9510 -17.0079 -13.1568  -5.7152  -2.8721   6.8320   7.2005   7.7808

          k = 0.2741 0.4748 0.0000 (  4729 PWs)   bands (ev):

   -18.9960 -15.2760 -13.7414  -6.3907  -1.9700   5.8647   6.3090   7.6024

          k = 0.2741 0.5540 0.0000 (  4735 PWs)   bands (ev):

   -17.8412 -16.3381 -14.2872  -5.2911  -3.1256   6.6666   7.5818   8.5731

          k = 0.3427 0.5935 0.0000 (  4740 PWs)   bands (ev):

   -16.8739 -16.8739 -14.9272  -4.1884  -4.1884   6.4661   8.8173   8.8173

     the Fermi energy is    -4.1884 ev

!    total energy              =     -22.79466117 Ry
     estimated scf accuracy    <          8.8E-11 Ry
     smearing contrib. (-TS)   =      -0.00005015 Ry
     internal energy E=F+TS    =     -22.79461102 Ry

     The total energy is F=E-TS. E is the sum of the following terms:
     one-electron contribution =    -391.78627797 Ry
     hartree contribution      =     196.52469497 Ry
     xc contribution           =      -7.03748725 Ry
     ewald contribution        =     179.50445924 Ry

     convergence has been achieved in   8 iterations

     Forces acting on atoms (cartesian axes, Ry/au):

     atom    1 type  1   force =     0.00000000    0.00000000    0.00000000
     atom    2 type  1   force =     0.00000000    0.00000000    0.00000000

     Total force =     0.000000     Total SCF correction =     0.000000


     Computing stress (Cartesian axis) and pressure

          total   stress  (Ry/bohr**3)                   (kbar)     P=       -4.89
  -0.00000029   0.00000000  -0.00000000           -0.04        0.00       -0.00
   0.00000000  -0.00000029   0.00000000            0.00       -0.04        0.00
  -0.00000000   0.00000000  -0.00009920           -0.00        0.00      -14.59

     Energy error            =      4.5E-06
     Gradient error          =      0.0E+00
     Cell gradient error     =      2.9E-07


     number of scf cycles    =   5
     number of bfgs steps    =   4

     enthalpy old            =     -22.7946566831 Ry
     enthalpy new            =     -22.7946611678 Ry

     CASE: enthalpy_new < enthalpy_old

     new trust radius        =       0.0001132685 bohr
     new conv_thr            =            1.0E-10 Ry

     new unit-cell volume =    751.95167 a.u.^3 (   111.42774 Ang^3 )
     density =      0.35798 g/cm^3

CELL_PARAMETERS (alat=  4.76000000)
   0.972736437  -0.000000000   0.000000000
  -0.486368219   0.842414466   0.000000000
   0.000000000   0.000000000   8.508403361

ATOMIC_POSITIONS (crystal)
C             0.3333333333        0.6666666667        0.5000000000
C             0.6666666667        0.3333333333        0.5000000000



     Writing output data file ./work/LiC476.save/
     NEW-OLD atomic charge density approx. for the potential
     extrapolated charge    7.99967, renormalised to    8.00000

     total cpu time spent up to now is        9.5 secs

     Self-consistent Calculation

     iteration #  1     ecut=    50.00 Ry     beta= 0.70
     Davidson diagonalization with overlap
     ethr =  1.00E-06,  avg # of iterations =  1.0

     Threshold (ethr) on eigenvalues was too large:
     Diagonalizing with lowered threshold

     Davidson diagonalization with overlap
     ethr =  3.62E-10,  avg # of iterations =  1.7

     total cpu time spent up to now is        9.7 secs

     total energy              =     -22.79466111 Ry
     estimated scf accuracy    <       0.00000003 Ry

     iteration #  2     ecut=    50.00 Ry     beta= 0.70
     Davidson diagonalization with overlap
     ethr =  4.10E-10,  avg # of iterations =  3.0

     total cpu time spent up to now is        9.8 secs

     total energy              =     -22.79466117 Ry
     estimated scf accuracy    <       0.00000003 Ry

     iteration #  3     ecut=    50.00 Ry     beta= 0.70
     Davidson diagonalization with overlap
     ethr =  3.85E-10,  avg # of iterations =  1.0

     total cpu time spent up to now is        9.9 secs

     total energy              =     -22.79466117 Ry
     estimated scf accuracy    <          7.2E-09 Ry

     iteration #  4     ecut=    50.00 Ry     beta= 0.70
     Davidson diagonalization with overlap
     ethr =  9.00E-11,  avg # of iterations =  2.0

     total cpu time spent up to now is       10.1 secs

     total energy              =     -22.79466117 Ry
     estimated scf accuracy    <          8.6E-10 Ry

     iteration #  5     ecut=    50.00 Ry     beta= 0.70
     Davidson diagonalization with overlap
     ethr =  1.07E-11,  avg # of iterations =  1.0

     total cpu time spent up to now is       10.2 secs

     total energy              =     -22.79466117 Ry
     estimated scf accuracy    <          1.0E-09 Ry

     iteration #  6     ecut=    50.00 Ry     beta= 0.70
     Davidson diagonalization with overlap
     ethr =  1.07E-11,  avg # of iterations =  1.0

     total cpu time spent up to now is       10.3 secs

     total energy              =     -22.79466117 Ry
     estimated scf accuracy    <          2.6E-10 Ry

     iteration #  7     ecut=    50.00 Ry     beta= 0.70
     Davidson diagonalization with overlap
     ethr =  3.25E-12,  avg # of iterations =  2.0

     total cpu time spent up to now is       10.4 secs

     End of self-consistent calculation

          k = 0.0000 0.0000 0.0000 (  4831 PWs)   bands (ev):

   -23.8817 -11.9443  -7.2744  -7.2744  -0.9823  -0.2005   0.5904   0.9445

          k = 0.0000 0.0791 0.0000 (  4795 PWs)   bands (ev):

   -23.7757 -11.8169  -7.7002  -7.5002  -0.8380  -0.0541   0.7378   1.0913

          k = 0.0000 0.1583 0.0000 (  4787 PWs)   bands (ev):

   -23.4585 -11.4359  -8.8336  -8.0740  -0.4051   0.3847   1.1799   1.5313

          k = 0.0000 0.2374 0.0000 (  4775 PWs)   bands (ev):

   -22.9322 -10.8096 -10.3907  -8.7899   0.3161   1.1137   1.9167   2.2624

          k = 0.0000 0.3166 0.0000 (  4767 PWs)   bands (ev):

   -22.2011 -12.1348  -9.9531  -9.4870   1.3231   2.0986   2.7416   2.9460

          k = 0.0000 0.3957 0.0000 (  4735 PWs)   bands (ev):

   -21.2723 -13.9131 -10.0659  -8.8985   0.8042   2.6078   3.4666   3.6995

          k = 0.0000 0.4748 0.0000 (  4730 PWs)   bands (ev):

   -20.1613 -15.6289 -10.4749  -7.7339  -0.9782   3.4727   4.2173   5.0527

          k = 0.0000 0.5540 0.0000 (  4748 PWs)   bands (ev):

   -18.9396 -17.1634 -10.6857  -6.7592  -2.2844   3.3828   6.0375   6.9061

          k = 0.0685 0.1187 0.0000 (  4783 PWs)   bands (ev):

   -23.5641 -11.5620  -8.4275  -7.9532  -0.5493   0.2386   1.0326   1.3848

          k = 0.0685 0.1978 0.0000 (  4772 PWs)   bands (ev):

   -23.1424 -11.0584  -9.6817  -8.6899   0.0281   0.8228   1.6222   1.9708

          k = 0.0685 0.2770 0.0000 (  4770 PWs)   bands (ev):

   -22.5137 -11.2732 -10.3158  -9.4570   0.8929   1.6934   2.5063   2.8409

          k = 0.0685 0.3561 0.0000 (  4749 PWs)   bands (ev):

   -21.6837 -13.0044 -10.1255  -9.3563   1.6603   2.0418   2.8860   3.6801

          k = 0.0685 0.4353 0.0000 (  4725 PWs)   bands (ev):

   -20.6626 -14.7377 -10.6338  -8.2297  -0.1606   3.4567   4.0758   4.3225

          k = 0.0685 0.5144 0.0000 (  4738 PWs)   bands (ev):

   -19.4789 -16.3731 -10.9503  -7.0926  -1.7589   3.8890   5.1969   6.0369

          k = 0.0685 0.5935 0.0000 (  4736 PWs)   bands (ev):

   -18.4924 -17.5138 -11.0570  -6.4919  -2.5192   3.8407   7.0672   7.2233

          k = 0.1371 0.2374 0.0000 (  4765 PWs)   bands (ev):

   -22.6182 -10.7845 -10.4373  -9.6651   0.7496   1.5512   2.3595   2.7020

          k = 0.1371 0.3166 0.0000 (  4738 PWs)   bands (ev):

   -21.8906 -12.1864 -10.5814  -9.5876   1.7574   2.2228   2.5782   3.3911

          k = 0.1371 0.3957 0.0000 (  4736 PWs)   bands (ev):

   -20.9676 -13.7922 -11.2606  -8.5407   0.5222   3.0465   3.8673   4.7132

          k = 0.1371 0.4748 0.0000 (  4724 PWs)   bands (ev):

   -19.8662 -15.4201 -11.7091  -7.3757  -1.1390   4.5993   5.2471   5.4235

          k = 0.1371 0.5540 0.0000 (  4734 PWs)   bands (ev):

   -18.6604 -16.9074 -11.9337  -6.3787  -2.4049   5.1168   6.4429   7.1349

          k = 0.2056 0.3561 0.0000 (  4733 PWs)   bands (ev):

   -21.0700 -13.2020 -11.7710  -8.6457   0.8027   2.9051   3.7086   4.5696

          k = 0.2056 0.4353 0.0000 (  4732 PWs)   bands (ev):

   -20.0644 -14.4977 -12.5972  -7.5347  -0.7025   4.3277   5.0946   6.0386

          k = 0.2056 0.5144 0.0000 (  4728 PWs)   bands (ev):

   -18.9059 -15.9420 -13.0242  -6.3773  -2.1188   6.0012   6.5457   6.9125

          k = 0.2056 0.5935 0.0000 (  4728 PWs)   bands (ev):

   -17.9511 -17.0081 -13.1570  -5.7152  -2.8720   6.8328   7.2008   7.7811

          k = 0.2741 0.4748 0.0000 (  4729 PWs)   bands (ev):

   -18.9962 -15.2761 -13.7417  -6.3908  -1.9698   5.8650   6.3092   7.6027

          k = 0.2741 0.5540 0.0000 (  4735 PWs)   bands (ev):

   -17.8414 -16.3382 -14.2875  -5.2911  -3.1255   6.6668   7.5821   8.5739

          k = 0.3427 0.5935 0.0000 (  4740 PWs)   bands (ev):

   -16.8740 -16.8740 -14.9276  -4.1883  -4.1883   6.4663   8.8178   8.8178

     the Fermi energy is    -4.1883 ev

!    total energy              =     -22.79466117 Ry
     estimated scf accuracy    <          1.9E-12 Ry
     smearing contrib. (-TS)   =      -0.00005015 Ry
     internal energy E=F+TS    =     -22.79461102 Ry

     The total energy is F=E-TS. E is the sum of the following terms:
     one-electron contribution =    -391.80265333 Ry
     hartree contribution      =     196.53292202 Ry
     xc contribution           =      -7.03757519 Ry
     ewald contribution        =     179.51269548 Ry

     convergence has been achieved in   7 iterations

     Forces acting on atoms (cartesian axes, Ry/au):

     atom    1 type  1   force =     0.00000000    0.00000000    0.00000000
     atom    2 type  1   force =     0.00000000    0.00000000    0.00000000

     Total force =     0.000000     Total SCF correction =     0.000000


     Computing stress (Cartesian axis) and pressure

          total   stress  (Ry/bohr**3)                   (kbar)     P=       -4.86
  -0.00000001  -0.00000000   0.00000000           -0.00       -0.00        0.00
   0.00000000  -0.00000001   0.00000000            0.00       -0.00        0.00
   0.00000000   0.00000000  -0.00009919            0.00        0.00      -14.59

     Energy error            =      4.9E-09
     Gradient error          =      0.0E+00
     Cell gradient error     =      9.3E-09


     number of scf cycles    =   6
     number of bfgs steps    =   5

     enthalpy old            =     -22.7946611678 Ry
     enthalpy new            =     -22.7946611727 Ry

     CASE: enthalpy_new < enthalpy_old

     small trust_radius: resetting bfgs history

     new trust radius        =       0.0000012716 bohr
     new conv_thr            =            1.0E-10 Ry

     new unit-cell volume =    751.95132 a.u.^3 (   111.42769 Ang^3 )
     density =      0.35798 g/cm^3

CELL_PARAMETERS (alat=  4.76000000)
   0.972736211  -0.000000000   0.000000000
  -0.486368106   0.842414270   0.000000000
   0.000000000   0.000000000   8.508403361

ATOMIC_POSITIONS (crystal)
C             0.3333333333        0.6666666667        0.5000000000
C             0.6666666667        0.3333333333        0.5000000000



     Writing output data file ./work/LiC476.save/
     NEW-OLD atomic charge density approx. for the potential
     extrapolated charge    8.00000, renormalised to    8.00000

     total cpu time spent up to now is       10.5 secs

     Self-consistent Calculation

     iteration #  1     ecut=    50.00 Ry     beta= 0.70
     Davidson diagonalization with overlap
     ethr =  1.00E-06,  avg # of iterations =  1.0

     Threshold (ethr) on eigenvalues was too large:
     Diagonalizing with lowered threshold

     Davidson diagonalization with overlap
     ethr =  8.28E-14,  avg # of iterations =  2.0

     total cpu time spent up to now is       10.7 secs

     End of self-consistent calculation

          k = 0.0000 0.0000 0.0000 (  4831 PWs)   bands (ev):

   -23.8820 -11.9446  -7.2747  -7.2747  -0.9825  -0.2006   0.5905   0.9445

          k = 0.0000 0.0791 0.0000 (  4795 PWs)   bands (ev):

   -23.7760 -11.8172  -7.7005  -7.5005  -0.8382  -0.0542   0.7378   1.0913

          k = 0.0000 0.1583 0.0000 (  4787 PWs)   bands (ev):

   -23.4588 -11.4362  -8.8340  -8.0743  -0.4052   0.3846   1.1800   1.5314

          k = 0.0000 0.2374 0.0000 (  4775 PWs)   bands (ev):

   -22.9325 -10.8099 -10.3910  -8.7902   0.3159   1.1136   1.9167   2.2624

          k = 0.0000 0.3166 0.0000 (  4767 PWs)   bands (ev):

   -22.2014 -12.1351  -9.9534  -9.4873   1.3230   2.0985   2.7413   2.9461

          k = 0.0000 0.3957 0.0000 (  4735 PWs)   bands (ev):

   -21.2727 -13.9134 -10.0663  -8.8988   0.8039   2.6076   3.4665   3.6992

          k = 0.0000 0.4748 0.0000 (  4730 PWs)   bands (ev):

   -20.1616 -15.6293 -10.4752  -7.7342  -0.9785   3.4723   4.2171   5.0526

          k = 0.0000 0.5540 0.0000 (  4748 PWs)   bands (ev):

   -18.9400 -17.1637 -10.6861  -6.7595  -2.2847   3.3825   6.0373   6.9060

          k = 0.0685 0.1187 0.0000 (  4783 PWs)   bands (ev):

   -23.5645 -11.5623  -8.4279  -7.9535  -0.5495   0.2385   1.0326   1.3848

          k = 0.0685 0.1978 0.0000 (  4772 PWs)   bands (ev):

   -23.1427 -11.0587  -9.6820  -8.6902   0.0279   0.8227   1.6223   1.9709

          k = 0.0685 0.2770 0.0000 (  4770 PWs)   bands (ev):

   -22.5140 -11.2735 -10.3161  -9.4573   0.8927   1.6933   2.5063   2.8409

          k = 0.0685 0.3561 0.0000 (  4749 PWs)   bands (ev):

   -21.6840 -13.0047 -10.1259  -9.3566   1.6600   2.0416   2.8859   3.6801

          k = 0.0685 0.4353 0.0000 (  4725 PWs)   bands (ev):

   -20.6629 -14.7380 -10.6341  -8.2300  -0.1609   3.4565   4.0755   4.3224

          k = 0.0685 0.5144 0.0000 (  4738 PWs)   bands (ev):

   -19.4792 -16.3734 -10.9506  -7.0929  -1.7592   3.8887   5.1967   6.0368

          k = 0.0685 0.5935 0.0000 (  4736 PWs)   bands (ev):

   -18.4927 -17.5141 -11.0573  -6.4922  -2.5195   3.8404   7.0670   7.2231

          k = 0.1371 0.2374 0.0000 (  4765 PWs)   bands (ev):

   -22.6186 -10.7848 -10.4376  -9.6655   0.7495   1.5511   2.3596   2.7020

          k = 0.1371 0.3166 0.0000 (  4738 PWs)   bands (ev):

   -21.8909 -12.1867 -10.5817  -9.5879   1.7572   2.2225   2.5781   3.3911

          k = 0.1371 0.3957 0.0000 (  4736 PWs)   bands (ev):

   -20.9679 -13.7926 -11.2609  -8.5410   0.5219   3.0463   3.8672   4.7132

          k = 0.1371 0.4748 0.0000 (  4724 PWs)   bands (ev):

   -19.8665 -15.4204 -11.7094  -7.3760  -1.1393   4.5991   5.2468   5.4233

          k = 0.1371 0.5540 0.0000 (  4734 PWs)   bands (ev):

   -18.6607 -16.9077 -11.9340  -6.3790  -2.4052   5.1165   6.4427   7.1347

          k = 0.2056 0.3561 0.0000 (  4733 PWs)   bands (ev):

   -21.0703 -13.2023 -11.7713  -8.6460   0.8024   2.9049   3.7085   4.5697

          k = 0.2056 0.4353 0.0000 (  4732 PWs)   bands (ev):

   -20.0647 -14.4980 -12.5976  -7.5350  -0.7028   4.3275   5.0945   6.0387

          k = 0.2056 0.5144 0.0000 (  4728 PWs)   bands (ev):

   -18.9063 -15.9423 -13.0245  -6.3776  -2.1191   6.0010   6.5455   6.9121

          k = 0.2056 0.5935 0.0000 (  4728 PWs)   bands (ev):

   -17.9515 -17.0084 -13.1574  -5.7155  -2.8723   6.8325   7.2005   7.7809

          k = 0.2741 0.4748 0.0000 (  4729 PWs)   bands (ev):

   -18.9966 -15.2764 -13.7420  -6.3911  -1.9701   5.8648   6.3090   7.6026

          k = 0.2741 0.5540 0.0000 (  4735 PWs)   bands (ev):

   -17.8417 -16.3386 -14.2878  -5.2914  -3.1258   6.6665   7.5819   8.5736

          k = 0.3427 0.5935 0.0000 (  4740 PWs)   bands (ev):

   -16.8744 -16.8744 -14.9279  -4.1886  -4.1886   6.4660   8.8176   8.8176

     the Fermi energy is    -4.1886 ev

!    total energy              =     -22.79466117 Ry
     estimated scf accuracy    <          7.3E-12 Ry
     smearing contrib. (-TS)   =      -0.00005015 Ry
     internal energy E=F+TS    =     -22.79461102 Ry

     The total energy is F=E-TS. E is the sum of the following terms:
     one-electron contribution =    -391.80286565 Ry
     hartree contribution      =     196.53304592 Ry
     xc contribution           =      -7.03757924 Ry
     ewald contribution        =     179.51278795 Ry

     convergence has been achieved in   1 iterations

     Forces acting on atoms (cartesian axes, Ry/au):

     atom    1 type  1   force =    -0.00000000   -0.00000000    0.00000000
     atom    2 type  1   force =     0.00000000    0.00000000    0.00000000

     Total force =     0.000000     Total SCF correction =     0.000000


     Computing stress (Cartesian axis) and pressure

          total   stress  (Ry/bohr**3)                   (kbar)     P=       -4.86
  -0.00000001  -0.00000000   0.00000000           -0.00       -0.00        0.00
   0.00000000  -0.00000001   0.00000000            0.00       -0.00        0.00
  -0.00000000  -0.00000000  -0.00009917           -0.00       -0.00      -14.59

     Energy error            =      1.7E-12
     Gradient error          =      1.8E-26
     Cell gradient error     =      8.2E-09


     number of scf cycles    =   7
     number of bfgs steps    =   6

     enthalpy old            =     -22.7946611727 Ry
     enthalpy new            =     -22.7946611727 Ry

     CASE: enthalpy_new < enthalpy_old


     WARNING: bfgs curvature condition failed, Theta= 0.904
     Message from routine bfgs:
     history already reset at previous step: stopping
     small trust_radius: resetting bfgs history

     new trust radius        =       0.0000011258 bohr
     new conv_thr            =            1.0E-10 Ry

     new unit-cell volume =    751.95101 a.u.^3 (   111.42764 Ang^3 )
     density =      0.35798 g/cm^3

CELL_PARAMETERS (alat=  4.76000000)
   0.972736012  -0.000000000   0.000000000
  -0.486368006   0.842414097   0.000000000
   0.000000000   0.000000000   8.508403361

ATOMIC_POSITIONS (crystal)
C             0.3333333333        0.6666666667        0.5000000000
C             0.6666666667        0.3333333333        0.5000000000



     Writing output data file ./work/LiC476.save/
     NEW-OLD atomic charge density approx. for the potential
     extrapolated charge    8.00000, renormalised to    8.00000

     total cpu time spent up to now is       10.8 secs

     Self-consistent Calculation

     iteration #  1     ecut=    50.00 Ry     beta= 0.70
     Davidson diagonalization with overlap
     ethr =  1.00E-06,  avg # of iterations =  1.0

     Threshold (ethr) on eigenvalues was too large:
     Diagonalizing with lowered threshold

     Davidson diagonalization with overlap
     ethr =  2.23E-14,  avg # of iterations =  2.0

     total cpu time spent up to now is       11.0 secs

     End of self-consistent calculation

          k = 0.0000 0.0000 0.0000 (  4831 PWs)   bands (ev):

   -23.8819 -11.9445  -7.2746  -7.2746  -0.9824  -0.2006   0.5905   0.9445

          k = 0.0000 0.0791 0.0000 (  4795 PWs)   bands (ev):

   -23.7760 -11.8171  -7.7004  -7.5004  -0.8381  -0.0542   0.7378   1.0913

          k = 0.0000 0.1583 0.0000 (  4787 PWs)   bands (ev):

   -23.4587 -11.4361  -8.8339  -8.0742  -0.4052   0.3847   1.1800   1.5314

          k = 0.0000 0.2374 0.0000 (  4775 PWs)   bands (ev):

   -22.9325 -10.8098 -10.3909  -8.7901   0.3159   1.1136   1.9167   2.2624

          k = 0.0000 0.3166 0.0000 (  4767 PWs)   bands (ev):

   -22.2013 -12.1350  -9.9534  -9.4872   1.3230   2.0985   2.7414   2.9461

          k = 0.0000 0.3957 0.0000 (  4735 PWs)   bands (ev):

   -21.2726 -13.9134 -10.0662  -8.8987   0.8039   2.6076   3.4665   3.6993

          k = 0.0000 0.4748 0.0000 (  4730 PWs)   bands (ev):

   -20.1615 -15.6292 -10.4751  -7.7341  -0.9784   3.4724   4.2172   5.0526

          k = 0.0000 0.5540 0.0000 (  4748 PWs)   bands (ev):

   -18.9399 -17.1637 -10.6860  -6.7594  -2.2846   3.3826   6.0374   6.9060

          k = 0.0685 0.1187 0.0000 (  4783 PWs)   bands (ev):

   -23.5644 -11.5623  -8.4278  -7.9534  -0.5495   0.2385   1.0326   1.3848

          k = 0.0685 0.1978 0.0000 (  4772 PWs)   bands (ev):

   -23.1426 -11.0586  -9.6819  -8.6901   0.0279   0.8228   1.6223   1.9709

          k = 0.0685 0.2770 0.0000 (  4770 PWs)   bands (ev):

   -22.5139 -11.2734 -10.3160  -9.4572   0.8927   1.6933   2.5063   2.8408

          k = 0.0685 0.3561 0.0000 (  4749 PWs)   bands (ev):

   -21.6839 -13.0046 -10.1258  -9.3565   1.6601   2.0417   2.8859   3.6801

          k = 0.0685 0.4353 0.0000 (  4725 PWs)   bands (ev):

   -20.6628 -14.7379 -10.6340  -8.2299  -0.1608   3.4565   4.0756   4.3225

          k = 0.0685 0.5144 0.0000 (  4738 PWs)   bands (ev):

   -19.4791 -16.3733 -10.9505  -7.0928  -1.7591   3.8888   5.1967   6.0368

          k = 0.0685 0.5935 0.0000 (  4736 PWs)   bands (ev):

   -18.4926 -17.5140 -11.0572  -6.4921  -2.5194   3.8404   7.0671   7.2232

          k = 0.1371 0.2374 0.0000 (  4765 PWs)   bands (ev):

   -22.6185 -10.7847 -10.4375  -9.6654   0.7495   1.5511   2.3596   2.7020

          k = 0.1371 0.3166 0.0000 (  4738 PWs)   bands (ev):

   -21.8908 -12.1867 -10.5816  -9.5879   1.7572   2.2225   2.5781   3.3911

          k = 0.1371 0.3957 0.0000 (  4736 PWs)   bands (ev):

   -20.9678 -13.7925 -11.2608  -8.5409   0.5219   3.0464   3.8672   4.7132

          k = 0.1371 0.4748 0.0000 (  4724 PWs)   bands (ev):

   -19.8664 -15.4204 -11.7093  -7.3760  -1.1392   4.5991   5.2469   5.4234

          k = 0.1371 0.5540 0.0000 (  4734 PWs)   bands (ev):

   -18.6606 -16.9076 -11.9339  -6.3790  -2.4051   5.1166   6.4427   7.1348

          k = 0.2056 0.3561 0.0000 (  4733 PWs)   bands (ev):

   -21.0702 -13.2022 -11.7712  -8.6459   0.8025   2.9049   3.7085   4.5697

          k = 0.2056 0.4353 0.0000 (  4732 PWs)   bands (ev):

   -20.0646 -14.4979 -12.5975  -7.5350  -0.7027   4.3275   5.0945   6.0387

          k = 0.2056 0.5144 0.0000 (  4728 PWs)   bands (ev):

   -18.9062 -15.9422 -13.0245  -6.3775  -2.1190   6.0010   6.5456   6.9122

          k = 0.2056 0.5935 0.0000 (  4728 PWs)   bands (ev):

   -17.9514 -17.0083 -13.1573  -5.7154  -2.8722   6.8326   7.2006   7.7809

          k = 0.2741 0.4748 0.0000 (  4729 PWs)   bands (ev):

   -18.9965 -15.2763 -13.7419  -6.3910  -1.9700   5.8648   6.3091   7.6027

          k = 0.2741 0.5540 0.0000 (  4735 PWs)   bands (ev):

   -17.8416 -16.3385 -14.2878  -5.2913  -3.1257   6.6666   7.5819   8.5737

          k = 0.3427 0.5935 0.0000 (  4740 PWs)   bands (ev):

   -16.8743 -16.8743 -14.9278  -4.1885  -4.1885   6.4661   8.8176   8.8176

     the Fermi energy is    -4.1885 ev

!    total energy              =     -22.79466117 Ry
     estimated scf accuracy    <          1.9E-12 Ry
     smearing contrib. (-TS)   =      -0.00005015 Ry
     internal energy E=F+TS    =     -22.79461102 Ry

     The total energy is F=E-TS. E is the sum of the following terms:
     one-electron contribution =    -391.80301260 Ry
     hartree contribution      =     196.53311016 Ry
     xc contribution           =      -7.03757840 Ry
     ewald contribution        =     179.51286981 Ry

     convergence has been achieved in   1 iterations

     Forces acting on atoms (cartesian axes, Ry/au):

     atom    1 type  1   force =     0.00000000    0.00000000    0.00000000
     atom    2 type  1   force =    -0.00000000   -0.00000000    0.00000000

     Total force =     0.000000     Total SCF correction =     0.000000


     Computing stress (Cartesian axis) and pressure

          total   stress  (Ry/bohr**3)                   (kbar)     P=       -4.86
  -0.00000000   0.00000000   0.00000000           -0.00        0.00        0.00
   0.00000000  -0.00000000   0.00000000            0.00       -0.00        0.00
  -0.00000000  -0.00000000  -0.00009918           -0.00       -0.00      -14.59

     Energy error            =      1.2E-11
     Gradient error          =      1.8E-26
     Cell gradient error     =      3.3E-09


     bfgs converged in   8 scf cycles and   7 bfgs steps
     (criteria: energy <  1.0E-04 Ry, force <  1.0E-08Ry/Bohr, cell <  1.0E-03kbar)

     End of BFGS Geometry Optimization

     Final enthalpy =     -22.7946611727 Ry

     File ./work/LiC476.bfgs deleted, as requested
Begin final coordinates
     new unit-cell volume =    751.95101 a.u.^3 (   111.42764 Ang^3 )
     density =      0.35798 g/cm^3

CELL_PARAMETERS (alat=  4.76000000)
   0.972736012  -0.000000000   0.000000000
  -0.486368006   0.842414097   0.000000000
   0.000000000   0.000000000   8.508403361

ATOMIC_POSITIONS (crystal)
C             0.3333333333        0.6666666667        0.5000000000
C             0.6666666667        0.3333333333        0.5000000000
End final coordinates



     Writing output data file ./work/LiC476.save/

     Final scf calculation at the relaxed structure.
     The G-vectors are recalculated for the final unit cell
     Results may differ from those at the preceding step.
 
     Parallelization info
     --------------------
     sticks:   dense  smooth     PW     G-vecs:    dense   smooth      PW
     Min           9       9      2                 1115     1115     170
     Max          10      10      3                 1144     1144     215
     Sum         301     301     91                35979    35979    6397
 


     bravais-lattice index     =            4
     lattice parameter (alat)  =       4.7600  a.u.
     unit-cell volume          =     751.9510 (a.u.)^3
     number of atoms/cell      =            2
     number of atomic types    =            1
     number of electrons       =         8.00
     number of Kohn-Sham states=            8
     kinetic-energy cutoff     =      50.0000  Ry
     charge density cutoff     =     200.0000  Ry
     scf convergence threshold =      1.0E-10
     mixing beta               =       0.7000
     number of iterations used =            8  plain     mixing
     press convergence thresh. =      1.0E-03
     Exchange-correlation= PBE
                           (   1   4   3   4   0   0   0)

     celldm(1)=   4.760000  celldm(2)=   0.000000  celldm(3)=   8.508403
     celldm(4)=   0.000000  celldm(5)=   0.000000  celldm(6)=   0.000000

     crystal axes: (cart. coord. in units of alat)
               a(1) = (   0.972736  -0.000000   0.000000 )  
               a(2) = (  -0.486368   0.842414   0.000000 )  
               a(3) = (   0.000000   0.000000   8.508403 )  

     reciprocal axes: (cart. coord. in units 2 pi/alat)
               b(1) = (  1.028028  0.593532  0.000000 )  
               b(2) = (  0.000000  1.187065  0.000000 )  
               b(3) = (  0.000000  0.000000  0.117531 )  


     PseudoPot. # 1 for C  read from file:
     /home/yhkim/qe-6.7/pseudo/ONCV1/1.2/C_ONCV_PBE-1.2.upf
     MD5 check sum: 1a5f83a7b1f58d24996abe00ed223ac6
     Pseudo is Norm-conserving, Zval =  4.0
     Generated using ONCVPSP code by D. R. Hamann
     Using radial grid of  602 points,  4 beta functions with: 
                l(1) =   0
                l(2) =   0
                l(3) =   1
                l(4) =   1

     atomic species   valence    mass     pseudopotential
        C              4.00    12.01070     C ( 1.00)

     24 Sym. Ops., with inversion, found



   Cartesian axes

     site n.     atom                  positions (alat units)
         1           C   tau(   1) = (  -0.0000000   0.5616094   4.2542017  )
         2           C   tau(   2) = (   0.4863680   0.2808047   4.2542017  )

     number of k points=    27  Methfessel-Paxton smearing, width (Ry)=  0.0100
                       cart. coord. in units 2pi/alat
        k(    1) = (   0.0000000   0.0000000   0.0000000), wk =   0.0088889
        k(    2) = (   0.0000000   0.0791376   0.0000000), wk =   0.0533333
        k(    3) = (   0.0000000   0.1582753   0.0000000), wk =   0.0533333
        k(    4) = (   0.0000000   0.2374129   0.0000000), wk =   0.0533333
        k(    5) = (   0.0000000   0.3165506   0.0000000), wk =   0.0533333
        k(    6) = (   0.0000000   0.3956882   0.0000000), wk =   0.0533333
        k(    7) = (   0.0000000   0.4748259   0.0000000), wk =   0.0533333
        k(    8) = (   0.0000000   0.5539635   0.0000000), wk =   0.0533333
        k(    9) = (   0.0685352   0.1187065   0.0000000), wk =   0.0533333
        k(   10) = (   0.0685352   0.1978441   0.0000000), wk =   0.1066667
        k(   11) = (   0.0685352   0.2769818   0.0000000), wk =   0.1066667
        k(   12) = (   0.0685352   0.3561194   0.0000000), wk =   0.1066667
        k(   13) = (   0.0685352   0.4352570   0.0000000), wk =   0.1066667
        k(   14) = (   0.0685352   0.5143947   0.0000000), wk =   0.1066667
        k(   15) = (   0.0685352   0.5935323   0.0000000), wk =   0.0533333
        k(   16) = (   0.1370704   0.2374129   0.0000000), wk =   0.0533333
        k(   17) = (   0.1370704   0.3165506   0.0000000), wk =   0.1066667
        k(   18) = (   0.1370704   0.3956882   0.0000000), wk =   0.1066667
        k(   19) = (   0.1370704   0.4748259   0.0000000), wk =   0.1066667
        k(   20) = (   0.1370704   0.5539635   0.0000000), wk =   0.1066667
        k(   21) = (   0.2056056   0.3561194   0.0000000), wk =   0.0533333
        k(   22) = (   0.2056056   0.4352570   0.0000000), wk =   0.1066667
        k(   23) = (   0.2056056   0.5143947   0.0000000), wk =   0.1066667
        k(   24) = (   0.2056056   0.5935323   0.0000000), wk =   0.0533333
        k(   25) = (   0.2741408   0.4748259   0.0000000), wk =   0.0533333
        k(   26) = (   0.2741408   0.5539635   0.0000000), wk =   0.1066667
        k(   27) = (   0.3426760   0.5935323   0.0000000), wk =   0.0177778

     Dense  grid:    35979 G-vectors     FFT dimensions: (  24,  24, 192)

     Estimated max dynamical RAM per process >       1.96 MB

     Estimated total dynamical RAM >      62.58 MB
 ----2D----2D----2D----2D----2D----2D----2D----2D----2D----2D----2D----2D
  The code is running with the 2D cutoff
  Please refer to:
  Sohier, T., Calandra, M., & Mauri, F. (2017), 
  Density functional perturbation theory for gated two-dimensional heterostructu
 res:
  Theoretical developments and application to flexural phonons in graphene.
  Physical Review B, 96(7), 75448. https://doi.org/10.1103/PhysRevB.96.075448
 ----2D----2D----2D----2D----2D----2D----2D----2D----2D----2D----2D----2D

     Initial potential from superposition of free atoms

     starting charge    7.98607, renormalised to    8.00000

     negative rho (up, down):  1.159E-04 0.000E+00
     Starting wfcs are random

     total cpu time spent up to now is       11.1 secs

     Self-consistent Calculation

     iteration #  1     ecut=    50.00 Ry     beta= 0.70
     Davidson diagonalization with overlap
     c_bands:  1 eigenvalues not converged
     c_bands:  2 eigenvalues not converged
     c_bands:  3 eigenvalues not converged
     c_bands:  4 eigenvalues not converged
     c_bands:  4 eigenvalues not converged
     c_bands:  4 eigenvalues not converged
     c_bands:  3 eigenvalues not converged
     c_bands:  2 eigenvalues not converged
     c_bands:  2 eigenvalues not converged
     c_bands:  3 eigenvalues not converged
     c_bands:  4 eigenvalues not converged
     c_bands:  4 eigenvalues not converged
     c_bands:  4 eigenvalues not converged
     c_bands:  3 eigenvalues not converged
     c_bands:  2 eigenvalues not converged
     c_bands:  4 eigenvalues not converged
     c_bands:  4 eigenvalues not converged
     c_bands:  4 eigenvalues not converged
     c_bands:  3 eigenvalues not converged
     c_bands:  3 eigenvalues not converged
     c_bands:  4 eigenvalues not converged
     c_bands:  3 eigenvalues not converged
     c_bands:  3 eigenvalues not converged
     c_bands:  3 eigenvalues not converged
     c_bands:  3 eigenvalues not converged
     c_bands:  3 eigenvalues not converged
     c_bands:  3 eigenvalues not converged
     ethr =  1.00E-06,  avg # of iterations = 23.7

     negative rho (up, down):  2.334E-05 0.000E+00

     total cpu time spent up to now is       11.9 secs

     total energy              =     -22.75978845 Ry
     estimated scf accuracy    <       0.20095097 Ry

     iteration #  2     ecut=    50.00 Ry     beta= 0.70
     Davidson diagonalization with overlap
     ethr =  2.51E-03,  avg # of iterations =  2.3

     negative rho (up, down):  3.031E-06 0.000E+00

     total cpu time spent up to now is       12.0 secs

     total energy              =     -22.79008753 Ry
     estimated scf accuracy    <       0.00235281 Ry

     iteration #  3     ecut=    50.00 Ry     beta= 0.70
     Davidson diagonalization with overlap
     ethr =  2.94E-05,  avg # of iterations =  9.0

     total cpu time spent up to now is       12.2 secs

     total energy              =     -22.79049670 Ry
     estimated scf accuracy    <       0.00017339 Ry

     iteration #  4     ecut=    50.00 Ry     beta= 0.70
     Davidson diagonalization with overlap
     c_bands:  1 eigenvalues not converged
     ethr =  2.17E-06,  avg # of iterations =  6.1

     total cpu time spent up to now is       12.3 secs

     total energy              =     -22.79051078 Ry
     estimated scf accuracy    <       0.00000128 Ry

     iteration #  5     ecut=    50.00 Ry     beta= 0.70
     Davidson diagonalization with overlap
     c_bands:  1 eigenvalues not converged
     ethr =  1.60E-08,  avg # of iterations =  4.3

     total cpu time spent up to now is       12.5 secs

     total energy              =     -22.79051226 Ry
     estimated scf accuracy    <       0.00000004 Ry

     iteration #  6     ecut=    50.00 Ry     beta= 0.70
     Davidson diagonalization with overlap
     ethr =  5.03E-10,  avg # of iterations =  2.5

     total cpu time spent up to now is       12.6 secs

     total energy              =     -22.79051227 Ry
     estimated scf accuracy    <          1.0E-09 Ry

     iteration #  7     ecut=    50.00 Ry     beta= 0.70
     Davidson diagonalization with overlap
     ethr =  1.26E-11,  avg # of iterations =  3.0

     total cpu time spent up to now is       12.7 secs

     End of self-consistent calculation

          k = 0.0000 0.0000 0.0000 (  4459 PWs)   bands (ev):

   -23.8878 -11.9468  -7.2644  -7.2644  -0.9837  -0.2037   0.5837   0.9388

          k = 0.0000 0.0791 0.0000 (  4461 PWs)   bands (ev):

   -23.7816 -11.8184  -7.6913  -7.4922  -0.8393  -0.0572   0.7310   1.0856

          k = 0.0000 0.1583 0.0000 (  4485 PWs)   bands (ev):

   -23.4643 -11.4379  -8.8251  -8.0649  -0.4064   0.3817   1.1732   1.5256

          k = 0.0000 0.2374 0.0000 (  4463 PWs)   bands (ev):

   -22.9378 -10.8114 -10.3808  -8.7796   0.3148   1.1107   1.9099   2.2567

          k = 0.0000 0.3166 0.0000 (  4505 PWs)   bands (ev):

   -22.2066 -12.1318  -9.9547  -9.4795   1.3220   2.0963   2.7433   2.9394

          k = 0.0000 0.3957 0.0000 (  4515 PWs)   bands (ev):

   -21.2778 -13.9150 -10.0595  -8.8995   0.8060   2.6068   3.4639   3.6966

          k = 0.0000 0.4748 0.0000 (  4515 PWs)   bands (ev):

   -20.1663 -15.6324 -10.4700  -7.7342  -0.9782   3.4690   4.2160   5.0503

          k = 0.0000 0.5540 0.0000 (  4521 PWs)   bands (ev):

   -18.9445 -17.1667 -10.6809  -6.7589  -2.2846   3.3784   6.0368   6.9041

          k = 0.0685 0.1187 0.0000 (  4479 PWs)   bands (ev):

   -23.5699 -11.5641  -8.4178  -7.9449  -0.5506   0.2355   1.0258   1.3791

          k = 0.0685 0.1978 0.0000 (  4475 PWs)   bands (ev):

   -23.1481 -11.0602  -9.6725  -8.6818   0.0268   0.8198   1.6155   1.9651

          k = 0.0685 0.2770 0.0000 (  4480 PWs)   bands (ev):

   -22.5193 -11.2679 -10.3172  -9.4485   0.8917   1.6905   2.4996   2.8349

          k = 0.0685 0.3561 0.0000 (  4494 PWs)   bands (ev):

   -21.6891 -13.0040 -10.1189  -9.3567   1.6638   2.0407   2.8835   3.6737

          k = 0.0685 0.4353 0.0000 (  4506 PWs)   bands (ev):

   -20.6679 -14.7403 -10.6284  -8.2312  -0.1585   3.4559   4.0728   4.3200

          k = 0.0685 0.5144 0.0000 (  4506 PWs)   bands (ev):

   -19.4837 -16.3765 -10.9449  -7.0939  -1.7577   3.8861   5.1960   6.0346

          k = 0.0685 0.5935 0.0000 (  4510 PWs)   bands (ev):

   -18.4975 -17.5170 -11.0525  -6.4925  -2.5187   3.8373   7.0671   7.2229

          k = 0.1371 0.2374 0.0000 (  4477 PWs)   bands (ev):

   -22.6238 -10.7793 -10.4388  -9.6586   0.7484   1.5483   2.3530   2.6967

          k = 0.1371 0.3166 0.0000 (  4475 PWs)   bands (ev):

   -21.8962 -12.1847 -10.5751  -9.5890   1.7562   2.2262   2.5756   3.3843

          k = 0.1371 0.3957 0.0000 (  4495 PWs)   bands (ev):

   -20.9730 -13.7925 -11.2565  -8.5418   0.5222   3.0455   3.8647   4.7066

          k = 0.1371 0.4748 0.0000 (  4503 PWs)   bands (ev):

   -19.8713 -15.4229 -11.7051  -7.3776  -1.1400   4.5987   5.2469   5.4212

          k = 0.1371 0.5540 0.0000 (  4501 PWs)   bands (ev):

   -18.6651 -16.9110 -11.9299  -6.3796  -2.4045   5.1165   6.4424   7.1339

          k = 0.2056 0.3561 0.0000 (  4481 PWs)   bands (ev):

   -21.0753 -13.2015 -11.7653  -8.6476   0.8039   2.9040   3.7060   4.5631

          k = 0.2056 0.4353 0.0000 (  4479 PWs)   bands (ev):

   -20.0694 -14.4983 -12.5929  -7.5347  -0.7009   4.3269   5.0927   6.0321

          k = 0.2056 0.5144 0.0000 (  4497 PWs)   bands (ev):

   -18.9110 -15.9449 -13.0208  -6.3786  -2.1183   6.0007   6.5446   6.9171

          k = 0.2056 0.5935 0.0000 (  4484 PWs)   bands (ev):

   -17.9558 -17.0113 -13.1541  -5.7163  -2.8708   6.8377   7.2003   7.7826

          k = 0.2741 0.4748 0.0000 (  4469 PWs)   bands (ev):

   -19.0009 -15.2775 -13.7391  -6.3908  -1.9690   5.8646   6.3082   7.6040

          k = 0.2741 0.5540 0.0000 (  4478 PWs)   bands (ev):

   -17.8456 -16.3409 -14.2855  -5.2913  -3.1258   6.6656   7.5830   8.5838

          k = 0.3427 0.5935 0.0000 (  4449 PWs)   bands (ev):

   -16.8768 -16.8768 -14.9267  -4.1870  -4.1870   6.4647   8.8253   8.8255

     the Fermi energy is    -4.1870 ev

!    total energy              =     -22.79051227 Ry
     estimated scf accuracy    <          1.2E-11 Ry
     smearing contrib. (-TS)   =      -0.00005015 Ry
     internal energy E=F+TS    =     -22.79046212 Ry

     The total energy is F=E-TS. E is the sum of the following terms:
     one-electron contribution =    -391.79478439 Ry
     hartree contribution      =     196.52878764 Ry
     xc contribution           =      -7.03733516 Ry
     ewald contribution        =     179.51286979 Ry

     convergence has been achieved in   7 iterations

     Forces acting on atoms (cartesian axes, Ry/au):

     atom    1 type  1   force =     0.00000000    0.00000000    0.00000000
     atom    2 type  1   force =     0.00000000    0.00000000    0.00000000

     Total force =     0.000000     Total SCF correction =     0.000000


     Computing stress (Cartesian axis) and pressure

          total   stress  (Ry/bohr**3)                   (kbar)     P=       -7.60
  -0.00002284  -0.00000000   0.00000000           -3.36       -0.00        0.00
  -0.00000000  -0.00002284   0.00000000           -0.00       -3.36        0.00
   0.00000000   0.00000000  -0.00010941            0.00        0.00      -16.09


     Writing output data file ./work/LiC476.save/
 
     init_run     :      0.12s CPU      0.15s WALL (       2 calls)
     electrons    :     11.11s CPU     12.13s WALL (       9 calls)
     update_pot   :      0.09s CPU      0.09s WALL (       7 calls)
     forces       :      0.07s CPU      0.08s WALL (       9 calls)
     stress       :      0.21s CPU      0.21s WALL (       9 calls)

     Called by init_run:
     wfcinit      :      0.09s CPU      0.11s WALL (       2 calls)
     potinit      :      0.01s CPU      0.02s WALL (       2 calls)
     hinit0       :      0.01s CPU      0.01s WALL (       2 calls)

     Called by electrons:
     c_bands      :      9.56s CPU     10.31s WALL (      75 calls)
     sum_band     :      1.37s CPU      1.46s WALL (      75 calls)
     v_of_rho     :      0.14s CPU      0.15s WALL (      81 calls)
     mix_rho      :      0.02s CPU      0.03s WALL (      75 calls)

     Called by c_bands:
     init_us_2    :      0.08s CPU      0.09s WALL (    4590 calls)
     cegterg      :      9.33s CPU     10.04s WALL (    2030 calls)

     Called by *egterg:
     cdiaghg      :      0.82s CPU      0.88s WALL (    9384 calls)
     h_psi        :      7.90s CPU      8.52s WALL (    9713 calls)
     g_psi        :      0.02s CPU      0.02s WALL (    7629 calls)

     Called by h_psi:
     h_psi:calbec :      0.31s CPU      0.34s WALL (    9713 calls)
     vloc_psi     :      7.44s CPU      8.02s WALL (    9713 calls)
     add_vuspsi   :      0.07s CPU      0.08s WALL (    9713 calls)

     General routines
     calbec       :      0.36s CPU      0.38s WALL (   10928 calls)
     fft          :      0.13s CPU      0.14s WALL (     883 calls)
     ffts         :      0.01s CPU      0.01s WALL (      75 calls)
     fftw         :      8.22s CPU      8.85s WALL (  119450 calls)
 
     Parallel routines
     fft_scatt_xy :      0.56s CPU      0.60s WALL (  120408 calls)
     fft_scatt_yz :      4.72s CPU      5.08s WALL (  120408 calls)
 
     PWSCF        :     11.69s CPU     13.00s WALL

 
   This run was terminated on:  14:15:58  19Jan2024            

=------------------------------------------------------------------------------=
   JOB DONE.
=------------------------------------------------------------------------------=
