
     Program PWSCF v.6.7MaX starts on 19Jan2024 at 14: 4:26 

     This program is part of the open-source Quantum ESPRESSO suite
     for quantum simulation of materials; please cite
         "P. Giannozzi et al., J. Phys.:Condens. Matter 21 395502 (2009);
         "P. Giannozzi et al., J. Phys.:Condens. Matter 29 465901 (2017);
          URL http://www.quantum-espresso.org", 
     in publications or presentations arising from this work. More details at
     http://www.quantum-espresso.org/quote

     Parallel version (MPI), running on    32 processors

     MPI processes distributed on     1 nodes
     R & G space division:  proc/nbgrp/npool/nimage =      32
     Waiting for input...
     Reading input from standard input

     Current dimensions of program PWSCF are:
     Max number of different atomic species (ntypx) = 10
     Max number of k-points (npk) =  40000
     Max angular momentum in pseudopotentials (lmaxx) =  3
     Message from routine read_pp_mesh:
     mesh size missing, using the one in header

     Subspace diagonalization in iterative solution of the eigenvalue problem:
     a serial algorithm will be used

 
     Parallelization info
     --------------------
     sticks:   dense  smooth     PW     G-vecs:    dense   smooth      PW
     Min           7       7      2                  899      899     158
     Max           8       8      3                  936      936     191
     Sum         241     241     85                29427    29427    5529
 


     bravais-lattice index     =            4
     lattice parameter (alat)  =       4.1900  a.u.
     unit-cell volume          =     615.7632 (a.u.)^3
     number of atoms/cell      =            2
     number of atomic types    =            1
     number of electrons       =         8.00
     number of Kohn-Sham states=            8
     kinetic-energy cutoff     =      50.0000  Ry
     charge density cutoff     =     200.0000  Ry
     scf convergence threshold =      1.0E-08
     mixing beta               =       0.7000
     number of iterations used =            8  plain     mixing
     energy convergence thresh.=      1.0E-04
     force convergence thresh. =      1.0E-08
     press convergence thresh. =      1.0E-03
     Exchange-correlation= PBE
                           (   1   4   3   4   0   0   0)
     nstep                     =           50


     celldm(1)=   4.190000  celldm(2)=   0.000000  celldm(3)=   9.665871
     celldm(4)=   0.000000  celldm(5)=   0.000000  celldm(6)=   0.000000

     crystal axes: (cart. coord. in units of alat)
               a(1) = (   1.000000   0.000000   0.000000 )  
               a(2) = (  -0.500000   0.866025   0.000000 )  
               a(3) = (   0.000000   0.000000   9.665871 )  

     reciprocal axes: (cart. coord. in units 2 pi/alat)
               b(1) = (  1.000000  0.577350  0.000000 )  
               b(2) = (  0.000000  1.154701  0.000000 )  
               b(3) = (  0.000000  0.000000  0.103457 )  


     PseudoPot. # 1 for C  read from file:
     /home/yhkim/qe-6.7/pseudo/ONCV1/1.2/C_ONCV_PBE-1.2.upf
     MD5 check sum: 1a5f83a7b1f58d24996abe00ed223ac6
     Pseudo is Norm-conserving, Zval =  4.0
     Generated using ONCVPSP code by D. R. Hamann
     Using radial grid of  602 points,  4 beta functions with: 
                l(1) =   0
                l(2) =   0
                l(3) =   1
                l(4) =   1

     atomic species   valence    mass     pseudopotential
        C              4.00    12.01070     C ( 1.00)

     24 Sym. Ops., with inversion, found



   Cartesian axes

     site n.     atom                  positions (alat units)
         1           C   tau(   1) = (  -0.0000000   0.5773503   4.8329356  )
         2           C   tau(   2) = (   0.5000000   0.2886751   4.8329356  )

     number of k points=    27  Methfessel-Paxton smearing, width (Ry)=  0.0100
                       cart. coord. in units 2pi/alat
        k(    1) = (   0.0000000   0.0000000   0.0000000), wk =   0.0088889
        k(    2) = (   0.0000000   0.0769800   0.0000000), wk =   0.0533333
        k(    3) = (   0.0000000   0.1539601   0.0000000), wk =   0.0533333
        k(    4) = (   0.0000000   0.2309401   0.0000000), wk =   0.0533333
        k(    5) = (   0.0000000   0.3079201   0.0000000), wk =   0.0533333
        k(    6) = (   0.0000000   0.3849002   0.0000000), wk =   0.0533333
        k(    7) = (   0.0000000   0.4618802   0.0000000), wk =   0.0533333
        k(    8) = (   0.0000000   0.5388603   0.0000000), wk =   0.0533333
        k(    9) = (   0.0666667   0.1154701   0.0000000), wk =   0.0533333
        k(   10) = (   0.0666667   0.1924501   0.0000000), wk =   0.1066667
        k(   11) = (   0.0666667   0.2694301   0.0000000), wk =   0.1066667
        k(   12) = (   0.0666667   0.3464102   0.0000000), wk =   0.1066667
        k(   13) = (   0.0666667   0.4233902   0.0000000), wk =   0.1066667
        k(   14) = (   0.0666667   0.5003702   0.0000000), wk =   0.1066667
        k(   15) = (   0.0666667   0.5773503   0.0000000), wk =   0.0533333
        k(   16) = (   0.1333333   0.2309401   0.0000000), wk =   0.0533333
        k(   17) = (   0.1333333   0.3079201   0.0000000), wk =   0.1066667
        k(   18) = (   0.1333333   0.3849002   0.0000000), wk =   0.1066667
        k(   19) = (   0.1333333   0.4618802   0.0000000), wk =   0.1066667
        k(   20) = (   0.1333333   0.5388603   0.0000000), wk =   0.1066667
        k(   21) = (   0.2000000   0.3464102   0.0000000), wk =   0.0533333
        k(   22) = (   0.2000000   0.4233902   0.0000000), wk =   0.1066667
        k(   23) = (   0.2000000   0.5003702   0.0000000), wk =   0.1066667
        k(   24) = (   0.2000000   0.5773503   0.0000000), wk =   0.0533333
        k(   25) = (   0.2666667   0.4618802   0.0000000), wk =   0.0533333
        k(   26) = (   0.2666667   0.5388603   0.0000000), wk =   0.1066667
        k(   27) = (   0.3333333   0.5773503   0.0000000), wk =   0.0177778

     Dense  grid:    29427 G-vectors     FFT dimensions: (  20,  20, 192)

     Estimated max dynamical RAM per process >       1.68 MB

     Estimated total dynamical RAM >      53.80 MB
 ----2D----2D----2D----2D----2D----2D----2D----2D----2D----2D----2D----2D
  The code is running with the 2D cutoff
  Please refer to:
  Sohier, T., Calandra, M., & Mauri, F. (2017), 
  Density functional perturbation theory for gated two-dimensional heterostructu
 res:
  Theoretical developments and application to flexural phonons in graphene.
  Physical Review B, 96(7), 75448. https://doi.org/10.1103/PhysRevB.96.075448
 ----2D----2D----2D----2D----2D----2D----2D----2D----2D----2D----2D----2D

     Initial potential from superposition of free atoms

     starting charge    7.98607, renormalised to    8.00000

     negative rho (up, down):  1.060E-04 0.000E+00
     Starting wfcs are random

     total cpu time spent up to now is        0.1 secs

     Self-consistent Calculation

     iteration #  1     ecut=    50.00 Ry     beta= 0.70
     Davidson diagonalization with overlap
     ethr =  1.00E-02,  avg # of iterations = 11.3

     negative rho (up, down):  1.499E-07 0.000E+00

     total cpu time spent up to now is        0.5 secs

     total energy              =     -22.59752927 Ry
     estimated scf accuracy    <       0.38468370 Ry

     iteration #  2     ecut=    50.00 Ry     beta= 0.70
     Davidson diagonalization with overlap
     ethr =  4.81E-03,  avg # of iterations =  2.0

     total cpu time spent up to now is        0.7 secs

     total energy              =     -22.65428895 Ry
     estimated scf accuracy    <       0.00266011 Ry

     iteration #  3     ecut=    50.00 Ry     beta= 0.70
     Davidson diagonalization with overlap
     ethr =  3.33E-05,  avg # of iterations = 11.2

     total cpu time spent up to now is        1.0 secs

     total energy              =     -22.65589214 Ry
     estimated scf accuracy    <       0.00017696 Ry

     iteration #  4     ecut=    50.00 Ry     beta= 0.70
     Davidson diagonalization with overlap
     ethr =  2.21E-06,  avg # of iterations =  6.7

     total cpu time spent up to now is        1.1 secs

     total energy              =     -22.65593050 Ry
     estimated scf accuracy    <       0.00000220 Ry

     iteration #  5     ecut=    50.00 Ry     beta= 0.70
     Davidson diagonalization with overlap
     ethr =  2.75E-08,  avg # of iterations =  3.7

     total cpu time spent up to now is        1.3 secs

     total energy              =     -22.65593317 Ry
     estimated scf accuracy    <       0.00000020 Ry

     iteration #  6     ecut=    50.00 Ry     beta= 0.70
     Davidson diagonalization with overlap
     ethr =  2.51E-09,  avg # of iterations =  2.1

     total cpu time spent up to now is        1.4 secs

     End of self-consistent calculation

          k = 0.0000 0.0000 0.0000 (  3715 PWs)   bands (ev):

   -25.4435 -13.2302  -6.0356  -1.0348  -0.2112   0.5586   0.9138   2.2371

          k = 0.0000 0.0770 0.0000 (  3709 PWs)   bands (ev):

   -25.3187 -13.0687  -6.5245  -6.3439  -0.8596  -0.0316   0.7385   1.0937

          k = 0.0000 0.1540 0.0000 (  3686 PWs)   bands (ev):

   -24.9450 -12.5857  -7.8362  -7.1188  -0.3326   0.5069   1.2785   1.6333

          k = 0.0000 0.2309 0.0000 (  3688 PWs)   bands (ev):

   -24.3247 -11.7903  -9.6557  -8.0703   0.5467   1.4026   2.1789   2.5311

          k = 0.0000 0.3079 0.0000 (  3662 PWs)   bands (ev):

   -23.4616 -11.7039 -10.6945  -8.9805   1.7766   2.6470   3.4394   3.7773

          k = 0.0000 0.3849 0.0000 (  3676 PWs)   bands (ev):

   -22.3623 -13.8058  -9.7326  -9.3373   3.0352   3.3535   4.3377   5.0586

          k = 0.0000 0.4619 0.0000 (  3706 PWs)   bands (ev):

   -21.0358 -15.8427 -10.2639  -7.8160   0.6561   5.2686   6.2601   7.0262

          k = 0.0000 0.5389 0.0000 (  3688 PWs)   bands (ev):

   -19.4955 -17.7468 -10.5344  -6.4973  -1.1329   7.4037   7.8112   8.5616

          k = 0.0667 0.1155 0.0000 (  3685 PWs)   bands (ev):

   -25.0695 -12.7459  -7.3491  -6.9602  -0.5082   0.3275   1.0985   1.4536

          k = 0.0667 0.1925 0.0000 (  3677 PWs)   bands (ev):

   -24.5724 -12.1061  -8.8021  -7.9336   0.1958   1.0448   1.8188   2.1725

          k = 0.0667 0.2694 0.0000 (  3669 PWs)   bands (ev):

   -23.8308 -11.1591 -10.6747  -8.9184   1.2514   2.1172   2.8996   3.2477

          k = 0.0667 0.3464 0.0000 (  3657 PWs)   bands (ev):

   -22.8498 -12.7198  -9.9282  -9.7682   2.6560   3.4941   4.3135   4.3406

          k = 0.0667 0.4234 0.0000 (  3685 PWs)   bands (ev):

   -21.6374 -14.7760 -10.4157  -8.4701   1.7974   4.4044   5.3647   6.1387

          k = 0.0667 0.5004 0.0000 (  3702 PWs)   bands (ev):

   -20.2041 -16.7411 -10.8175  -6.9647  -0.3725   6.4838   7.4859   8.1598

          k = 0.0667 0.5774 0.0000 (  3672 PWs)   bands (ev):

   -18.6428 -18.4803 -10.9509  -6.1353  -1.4308   8.1388   8.8659   9.0231

          k = 0.1333 0.2309 0.0000 (  3675 PWs)   bands (ev):

   -23.9542 -11.3149 -10.0192  -9.2232   1.0771   1.9398   2.7200   3.0699

          k = 0.1333 0.3079 0.0000 (  3677 PWs)   bands (ev):

   -23.0949 -11.6734 -10.3507 -10.2281   2.3086   3.1852   3.9814   4.3177

          k = 0.1333 0.3849 0.0000 (  3679 PWs)   bands (ev):

   -22.0013 -13.6098 -11.1478  -8.8786   2.8169   3.8861   4.8065   5.6020

          k = 0.1333 0.4619 0.0000 (  3683 PWs)   bands (ev):

   -20.6833 -15.5705 -11.6770  -7.3584   0.5679   5.8024   6.7372   7.5806

          k = 0.1333 0.5389 0.0000 (  3673 PWs)   bands (ev):

   -19.1550 -17.4357 -11.9438  -6.0153  -1.1688   8.0403   8.9393   9.5853

          k = 0.2000 0.3464 0.0000 (  3695 PWs)   bands (ev):

   -22.1233 -12.7202 -11.9214  -9.0172   3.2738   3.7131   4.6013   5.4234

          k = 0.2000 0.4234 0.0000 (  3679 PWs)   bands (ev):

   -20.9245 -14.3272 -12.8315  -7.5756   1.2741   5.4576   6.3334   7.2225

          k = 0.2000 0.5004 0.0000 (  3665 PWs)   bands (ev):

   -19.5127 -16.1560 -13.2561  -6.0511  -0.6303   7.5272   8.2185   9.3784

          k = 0.2000 0.5774 0.0000 (  3634 PWs)   bands (ev):

   -17.9221 -17.8981 -13.3895  -5.1494  -1.6655   9.1299   9.8050   9.9619

          k = 0.2667 0.4619 0.0000 (  3665 PWs)   bands (ev):

   -19.6329 -14.9983 -14.4428  -6.0843  -0.3492   7.3541   7.9076   9.1905

          k = 0.2667 0.5389 0.0000 (  3643 PWs)   bands (ev):

   -18.1487 -16.5155 -14.9329  -4.6301  -1.8643   8.2985   9.5320  11.0351

          k = 0.3333 0.5774 0.0000 (  3681 PWs)   bands (ev):

   -16.7365 -16.7365 -16.3661  -3.2037  -3.2037   7.9595  11.5504  11.5506

     the Fermi energy is    -3.1613 ev

!    total energy              =     -22.65593322 Ry
     estimated scf accuracy    <          6.6E-09 Ry
     smearing contrib. (-TS)   =      -0.00003668 Ry
     internal energy E=F+TS    =     -22.65589655 Ry

     The total energy is F=E-TS. E is the sum of the following terms:
     one-electron contribution =    -479.72998994 Ry
     hartree contribution      =     240.73868664 Ry
     xc contribution           =      -7.49855547 Ry
     ewald contribution        =     223.83396222 Ry

     convergence has been achieved in   6 iterations

     Forces acting on atoms (cartesian axes, Ry/au):

     atom    1 type  1   force =     0.00000000    0.00000000    0.00000000
     atom    2 type  1   force =     0.00000000    0.00000000    0.00000000

     Total force =     0.000000     Total SCF correction =     0.000000


     Computing stress (Cartesian axis) and pressure

          total   stress  (Ry/bohr**3)                   (kbar)     P=      188.08
   0.00198850   0.00000000  -0.00000000          292.52        0.00       -0.00
   0.00000000   0.00198850   0.00000000            0.00      292.52        0.00
   0.00000000   0.00000000  -0.00014143            0.00        0.00      -20.80


     BFGS Geometry Optimization
     Energy error            =      0.0E+00
     Gradient error          =      0.0E+00
     Cell gradient error     =      2.0E-03


     number of scf cycles    =   1
     number of bfgs steps    =   0

     enthalpy new            =     -22.6559332244 Ry

     new trust radius        =       0.2467191888 bohr
     new conv_thr            =       0.0000000100 Ry

     new unit-cell volume =    678.50724 a.u.^3 (   100.54440 Ang^3 )
     density =      0.39672 g/cm^3

CELL_PARAMETERS (alat=  4.19000000)
   1.049712555   0.000000000   0.000000000
  -0.524856278   0.909077740   0.000000000
   0.000000000   0.000000000   9.665871122

ATOMIC_POSITIONS (crystal)
C             0.3333333333        0.6666666667        0.5000000000
C             0.6666666667        0.3333333333        0.5000000000



     Writing output data file ./work/LiC419.save/
     NEW-OLD atomic charge density approx. for the potential

     negative rho (up, down):  1.366E-04 0.000E+00
     extrapolated charge    8.73850, renormalised to    8.00000

     total cpu time spent up to now is        1.5 secs

     Self-consistent Calculation

     iteration #  1     ecut=    50.00 Ry     beta= 0.70
     Davidson diagonalization with overlap
     c_bands:  1 eigenvalues not converged
     c_bands:  2 eigenvalues not converged
     c_bands:  3 eigenvalues not converged
     c_bands:  4 eigenvalues not converged
     c_bands:  2 eigenvalues not converged
     c_bands:  4 eigenvalues not converged
     c_bands:  2 eigenvalues not converged
     c_bands:  3 eigenvalues not converged
     c_bands:  4 eigenvalues not converged
     c_bands:  3 eigenvalues not converged
     c_bands:  5 eigenvalues not converged
     c_bands:  5 eigenvalues not converged
     c_bands:  5 eigenvalues not converged
     c_bands:  4 eigenvalues not converged
     c_bands:  3 eigenvalues not converged
     c_bands:  5 eigenvalues not converged
     c_bands:  5 eigenvalues not converged
     c_bands:  5 eigenvalues not converged
     c_bands:  5 eigenvalues not converged
     c_bands:  5 eigenvalues not converged
     c_bands:  5 eigenvalues not converged
     c_bands:  5 eigenvalues not converged
     c_bands:  1 eigenvalues not converged
     ethr =  1.00E-06,  avg # of iterations = 23.3

     negative rho (up, down):  1.285E-05 0.000E+00

     total cpu time spent up to now is        2.4 secs

     total energy              =     707.44915027 Ry
     estimated scf accuracy    <     400.40439798 Ry

     iteration #  2     ecut=    50.00 Ry     beta= 0.70
     Davidson diagonalization with overlap
     c_bands:  1 eigenvalues not converged
     c_bands:  2 eigenvalues not converged
     c_bands:  4 eigenvalues not converged
     c_bands:  2 eigenvalues not converged
     c_bands:  3 eigenvalues not converged
     c_bands:  2 eigenvalues not converged
     c_bands:  1 eigenvalues not converged
     c_bands:  1 eigenvalues not converged
     c_bands:  5 eigenvalues not converged
     c_bands:  4 eigenvalues not converged
     c_bands:  3 eigenvalues not converged
     c_bands:  1 eigenvalues not converged
     c_bands:  1 eigenvalues not converged
     c_bands:  1 eigenvalues not converged
     c_bands:  5 eigenvalues not converged
     c_bands:  3 eigenvalues not converged
     c_bands:  5 eigenvalues not converged
     c_bands:  3 eigenvalues not converged
     c_bands:  4 eigenvalues not converged
     c_bands:  5 eigenvalues not converged
     ethr =  1.00E-02,  avg # of iterations = 39.9

     negative rho (up, down):  5.738E-06 0.000E+00

     total cpu time spent up to now is        4.0 secs

     total energy              =    -156.92615609 Ry
     estimated scf accuracy    <     203.54001628 Ry

     iteration #  3     ecut=    50.00 Ry     beta= 0.70
     Davidson diagonalization with overlap
     c_bands:  1 eigenvalues not converged
     ethr =  1.00E-02,  avg # of iterations =  6.0

     negative rho (up, down):  6.832E-07 0.000E+00

     total cpu time spent up to now is        4.2 secs

     total energy              =     -52.82196128 Ry
     estimated scf accuracy    <      70.41438972 Ry

     iteration #  4     ecut=    50.00 Ry     beta= 0.70
     Davidson diagonalization with overlap
     ethr =  1.00E-02,  avg # of iterations =  3.6

     negative rho (up, down):  1.402E-06 0.000E+00

     total cpu time spent up to now is        4.3 secs

     total energy              =     -56.62644938 Ry
     estimated scf accuracy    <      16.04637869 Ry

     iteration #  5     ecut=    50.00 Ry     beta= 0.70
     Davidson diagonalization with overlap
     ethr =  1.00E-02,  avg # of iterations =  1.1

     negative rho (up, down):  1.318E-07 0.000E+00

     total cpu time spent up to now is        4.4 secs

     total energy              =     -28.45249844 Ry
     estimated scf accuracy    <      17.83155565 Ry

     iteration #  6     ecut=    50.00 Ry     beta= 0.70
     Davidson diagonalization with overlap
     ethr =  1.00E-02,  avg # of iterations =  3.9

     negative rho (up, down):  4.912E-08 0.000E+00

     total cpu time spent up to now is        4.6 secs

     total energy              =     -29.54075619 Ry
     estimated scf accuracy    <       3.22621276 Ry

     iteration #  7     ecut=    50.00 Ry     beta= 0.70
     Davidson diagonalization with overlap
     ethr =  1.00E-02,  avg # of iterations =  1.2

     negative rho (up, down):  4.122E-08 0.000E+00

     total cpu time spent up to now is        4.7 secs

     total energy              =     -29.82150237 Ry
     estimated scf accuracy    <       3.65151369 Ry

     iteration #  8     ecut=    50.00 Ry     beta= 0.70
     Davidson diagonalization with overlap
     ethr =  1.00E-02,  avg # of iterations =  1.0

     negative rho (up, down):  4.082E-08 0.000E+00

     total cpu time spent up to now is        4.8 secs

     total energy              =     -29.80402230 Ry
     estimated scf accuracy    <       3.76163030 Ry

     iteration #  9     ecut=    50.00 Ry     beta= 0.70
     Davidson diagonalization with overlap
     ethr =  1.00E-02,  avg # of iterations =  1.2

     negative rho (up, down):  1.311E-07 0.000E+00

     total cpu time spent up to now is        4.9 secs

     total energy              =     -29.28784804 Ry
     estimated scf accuracy    <       3.75651050 Ry

     iteration # 10     ecut=    50.00 Ry     beta= 0.70
     Davidson diagonalization with overlap
     ethr =  1.00E-02,  avg # of iterations =  1.1

     total cpu time spent up to now is        5.0 secs

     total energy              =     -22.52338354 Ry
     estimated scf accuracy    <       3.49714512 Ry

     iteration # 11     ecut=    50.00 Ry     beta= 0.70
     Davidson diagonalization with overlap
     ethr =  1.00E-02,  avg # of iterations =  6.1

     total cpu time spent up to now is        5.2 secs

     total energy              =     -22.75245040 Ry
     estimated scf accuracy    <       0.03502206 Ry

     iteration # 12     ecut=    50.00 Ry     beta= 0.70
     Davidson diagonalization with overlap
     ethr =  4.38E-04,  avg # of iterations =  9.0

     negative rho (up, down):  1.862E-06 0.000E+00

     total cpu time spent up to now is        5.4 secs

     total energy              =     -22.75347068 Ry
     estimated scf accuracy    <       0.03175535 Ry

     iteration # 13     ecut=    50.00 Ry     beta= 0.70
     Davidson diagonalization with overlap
     ethr =  3.97E-04,  avg # of iterations =  1.3

     negative rho (up, down):  1.589E-03 0.000E+00

     total cpu time spent up to now is        5.5 secs

     total energy              =     -22.74527132 Ry
     estimated scf accuracy    <       0.03359410 Ry

     iteration # 14     ecut=    50.00 Ry     beta= 0.70
     Davidson diagonalization with overlap
     ethr =  3.97E-04,  avg # of iterations =  1.0

     negative rho (up, down):  5.119E-03 0.000E+00

     total cpu time spent up to now is        5.6 secs

     total energy              =     -22.73450068 Ry
     estimated scf accuracy    <       0.01691653 Ry

     iteration # 15     ecut=    50.00 Ry     beta= 0.70
     Davidson diagonalization with overlap
     ethr =  2.11E-04,  avg # of iterations =  3.6

     negative rho (up, down):  6.217E-04 0.000E+00

     total cpu time spent up to now is        5.8 secs

     total energy              =     -22.73903199 Ry
     estimated scf accuracy    <       0.02454396 Ry

     iteration # 16     ecut=    50.00 Ry     beta= 0.70
     Davidson diagonalization with overlap
     ethr =  2.11E-04,  avg # of iterations =  2.0

     negative rho (up, down):  1.316E-07 0.000E+00

     total cpu time spent up to now is        5.9 secs

     total energy              =     -22.74224502 Ry
     estimated scf accuracy    <       0.00239987 Ry

     iteration # 17     ecut=    50.00 Ry     beta= 0.70
     Davidson diagonalization with overlap
     ethr =  3.00E-05,  avg # of iterations =  3.4

     negative rho (up, down):  2.077E-05 0.000E+00

     total cpu time spent up to now is        6.1 secs

     total energy              =     -22.74093584 Ry
     estimated scf accuracy    <       0.00642924 Ry

     iteration # 18     ecut=    50.00 Ry     beta= 0.70
     Davidson diagonalization with overlap
     ethr =  3.00E-05,  avg # of iterations =  6.9

     negative rho (up, down):  1.089E-05 0.000E+00

     total cpu time spent up to now is        6.3 secs

     total energy              =     -22.73916213 Ry
     estimated scf accuracy    <       0.01134316 Ry

     iteration # 19     ecut=    50.00 Ry     beta= 0.70
     Davidson diagonalization with overlap
     ethr =  3.00E-05,  avg # of iterations =  3.4

     negative rho (up, down):  7.351E-05 0.000E+00

     total cpu time spent up to now is        6.5 secs

     total energy              =     -22.74115409 Ry
     estimated scf accuracy    <       0.00022089 Ry

     iteration # 20     ecut=    50.00 Ry     beta= 0.70
     Davidson diagonalization with overlap
     ethr =  2.76E-06,  avg # of iterations =  4.4

     total cpu time spent up to now is        6.6 secs

     total energy              =     -22.74118934 Ry
     estimated scf accuracy    <       0.00005298 Ry

     iteration # 21     ecut=    50.00 Ry     beta= 0.70
     Davidson diagonalization with overlap
     ethr =  6.62E-07,  avg # of iterations =  3.4

     total cpu time spent up to now is        6.8 secs

     total energy              =     -22.74119636 Ry
     estimated scf accuracy    <       0.00000024 Ry

     iteration # 22     ecut=    50.00 Ry     beta= 0.70
     Davidson diagonalization with overlap
     ethr =  3.01E-09,  avg # of iterations =  2.9

     total cpu time spent up to now is        6.9 secs

     End of self-consistent calculation

          k = 0.0000 0.0000 0.0000 (  3715 PWs)   bands (ev):

   -24.6977 -12.5798  -6.6584  -6.6584  -1.0159  -0.2150   0.5529   0.9100

          k =-0.0000 0.0733 0.0000 (  3709 PWs)   bands (ev):

   -24.5819 -12.4358  -7.1137  -6.9230  -0.8564  -0.0523   0.7162   1.0730

          k =-0.0000 0.1467 0.0000 (  3686 PWs)   bands (ev):

   -24.2354 -12.0047  -8.3353  -7.5954  -0.3773   0.4355   1.2062   1.5619

          k =-0.0000 0.2200 0.0000 (  3688 PWs)   bands (ev):

   -23.6600 -11.2956 -10.0268  -8.4277   0.4214   1.2464   2.0232   2.3747

          k =-0.0000 0.2933 0.0000 (  3662 PWs)   bands (ev):

   -22.8593 -11.9291 -10.3203  -9.2288   1.5380   2.3678   3.1663   3.4874

          k =-0.0000 0.3667 0.0000 (  3676 PWs)   bands (ev):

   -21.8399 -13.8813  -9.8943  -9.1168   1.9213   2.9679   3.8776   4.6321

          k =-0.0000 0.4400 0.0000 (  3706 PWs)   bands (ev):

   -20.6115 -15.7693 -10.3680  -7.7778  -0.1657   4.6893   5.5846   5.6373

          k =-0.0000 0.5133 0.0000 (  3688 PWs)   bands (ev):

   -19.1987 -17.5173 -10.6086  -6.6354  -1.7069   5.4587   6.7875   7.7134

          k = 0.0635 0.1100 0.0000 (  3685 PWs)   bands (ev):

   -24.3508 -12.1475  -7.8866  -7.4568  -0.5370   0.2730   1.0429   1.3990

          k = 0.0635 0.1833 0.0000 (  3677 PWs)   bands (ev):

   -23.8898 -11.5767  -9.2444  -8.3111   0.1025   0.9226   1.6966   2.0502

          k = 0.0635 0.2567 0.0000 (  3669 PWs)   bands (ev):

   -23.2019 -10.9809 -10.7332  -9.1867   1.0610   1.8928   2.6770   3.0227

          k = 0.0635 0.3300 0.0000 (  3657 PWs)   bands (ev):

   -22.2920 -12.8759  -9.9450  -9.6396   2.3357   2.8696   3.3076   3.9833

          k = 0.0635 0.4033 0.0000 (  3685 PWs)   bands (ev):

   -21.1683 -14.7817 -10.5258  -8.3507   0.8120   3.9200   4.8250   5.6055

          k = 0.0635 0.4767 0.0000 (  3702 PWs)   bands (ev):

   -19.8443 -16.5975 -10.8870  -7.0340  -1.0681   5.7378   6.0971   6.7415

          k = 0.0635 0.5500 0.0000 (  3672 PWs)   bands (ev):

   -18.5417 -18.0617 -11.0057  -6.3221  -1.9731   5.9570   7.9437   8.0898

          k = 0.1270 0.2200 0.0000 (  3675 PWs)   bands (ev):

   -23.3163 -10.8717 -10.4101  -9.4437   0.9025   1.7328   2.5141   2.8628

          k = 0.1270 0.2933 0.0000 (  3677 PWs)   bands (ev):

   -22.5194 -11.9398 -10.4723  -9.9054   2.0200   2.8561   3.6583   3.6767

          k = 0.1270 0.3667 0.0000 (  3679 PWs)   bands (ev):

   -21.5057 -13.7141 -11.2158  -8.7094   1.6570   3.4511   4.3182   5.1279

          k = 0.1270 0.4400 0.0000 (  3683 PWs)   bands (ev):

   -20.2862 -15.5190 -11.7059  -7.3708  -0.2941   5.1871   6.0610   6.9150

          k = 0.1270 0.5133 0.0000 (  3673 PWs)   bands (ev):

   -18.8911 -17.2201 -11.9517  -6.2051  -1.7896   7.1533   7.3996   8.0177

          k = 0.1905 0.3300 0.0000 (  3695 PWs)   bands (ev):

   -21.6189 -12.9844 -11.8507  -8.8313   2.0180   3.2939   4.1385   4.9657

          k = 0.1905 0.4033 0.0000 (  3679 PWs)   bands (ev):

   -20.5093 -14.4219 -12.7404  -7.5573   0.2704   4.8752   5.6951   6.5975

          k = 0.1905 0.4767 0.0000 (  3665 PWs)   bands (ev):

   -19.2103 -16.0652 -13.1723  -6.2205  -1.3847   6.7475   7.3594   8.5824

          k = 0.1905 0.5500 0.0000 (  3634 PWs)   bands (ev):

   -17.9742 -17.4312 -13.3032  -5.4418  -2.2735   8.1327   8.7792   8.9281

          k = 0.2540 0.4400 0.0000 (  3665 PWs)   bands (ev):

   -19.3196 -15.1687 -14.1066  -6.2435  -1.1744   6.5911   7.0851   8.3602

          k = 0.2540 0.5133 0.0000 (  3643 PWs)   bands (ev):

   -17.9846 -16.4238 -14.6723  -4.9703  -2.5068   7.4556   8.5469  10.0121

          k = 0.3175 0.5500 0.0000 (  3681 PWs)   bands (ev):

   -16.8469 -16.8469 -15.6186  -3.7087  -3.7087   7.1882  10.2439  10.2439

     the Fermi energy is    -3.7087 ev

!    total energy              =     -22.74119653 Ry
     estimated scf accuracy    <          5.9E-09 Ry
     smearing contrib. (-TS)   =      -0.00005015 Ry
     internal energy E=F+TS    =     -22.74114638 Ry

     The total energy is F=E-TS. E is the sum of the following terms:
     one-electron contribution =    -434.74866391 Ry
     hartree contribution      =     218.12284956 Ry
     xc contribution           =      -7.26739009 Ry
     ewald contribution        =     201.15205805 Ry

     convergence has been achieved in  22 iterations

     Forces acting on atoms (cartesian axes, Ry/au):

     atom    1 type  1   force =    -0.00000000   -0.00000000    0.00000000
     atom    2 type  1   force =     0.00000000    0.00000000    0.00000000

     Total force =     0.000000     Total SCF correction =     0.000000


     Computing stress (Cartesian axis) and pressure

          total   stress  (Ry/bohr**3)                   (kbar)     P=       67.13
   0.00075660   0.00000000   0.00000000          111.30        0.00        0.00
   0.00000000   0.00075660   0.00000000            0.00      111.30        0.00
  -0.00000000   0.00000000  -0.00014411           -0.00        0.00      -21.20

     Energy error            =      8.5E-02
     Gradient error          =      1.6E-26
     Cell gradient error     =      7.6E-04


     number of scf cycles    =   2
     number of bfgs steps    =   1

     enthalpy old            =     -22.6559332244 Ry
     enthalpy new            =     -22.7411965282 Ry

     CASE: enthalpy_new < enthalpy_old

     new trust radius        =       0.1640690870 bohr
     new conv_thr            =            1.0E-10 Ry

     new unit-cell volume =    721.91720 a.u.^3 (   106.97709 Ang^3 )
     density =      0.37287 g/cm^3

CELL_PARAMETERS (alat=  4.19000000)
   1.082771571   0.000000000   0.000000000
  -0.541385786   0.937707687   0.000000000
   0.000000000   0.000000000   9.665871122

ATOMIC_POSITIONS (crystal)
C             0.3333333333        0.6666666667        0.5000000000
C             0.6666666667        0.3333333333        0.5000000000



     Writing output data file ./work/LiC419.save/
     NEW-OLD atomic charge density approx. for the potential

     negative rho (up, down):  5.566E-05 0.000E+00
     extrapolated charge    8.48021, renormalised to    8.00000

     total cpu time spent up to now is        7.0 secs

     Self-consistent Calculation

     iteration #  1     ecut=    50.00 Ry     beta= 0.70
     Davidson diagonalization with overlap
     c_bands:  1 eigenvalues not converged
     c_bands:  1 eigenvalues not converged
     c_bands:  2 eigenvalues not converged
     c_bands:  2 eigenvalues not converged
     c_bands:  2 eigenvalues not converged
     c_bands:  5 eigenvalues not converged
     c_bands:  1 eigenvalues not converged
     c_bands:  2 eigenvalues not converged
     c_bands:  2 eigenvalues not converged
     c_bands:  2 eigenvalues not converged
     c_bands:  2 eigenvalues not converged
     c_bands:  3 eigenvalues not converged
     c_bands:  3 eigenvalues not converged
     c_bands:  2 eigenvalues not converged
     c_bands:  1 eigenvalues not converged
     c_bands:  3 eigenvalues not converged
     c_bands:  3 eigenvalues not converged
     c_bands:  5 eigenvalues not converged
     c_bands:  3 eigenvalues not converged
     c_bands:  3 eigenvalues not converged
     c_bands:  4 eigenvalues not converged
     c_bands:  4 eigenvalues not converged
     c_bands:  5 eigenvalues not converged
     c_bands:  4 eigenvalues not converged
     c_bands:  5 eigenvalues not converged
     ethr =  1.00E-06,  avg # of iterations = 19.7

     negative rho (up, down):  1.601E-06 0.000E+00

     total cpu time spent up to now is        7.7 secs

     total energy              =     625.95290636 Ry
     estimated scf accuracy    <     359.75347677 Ry

     iteration #  2     ecut=    50.00 Ry     beta= 0.70
     Davidson diagonalization with overlap
     c_bands:  1 eigenvalues not converged
     c_bands:  5 eigenvalues not converged
     c_bands:  1 eigenvalues not converged
     c_bands:  4 eigenvalues not converged
     c_bands:  4 eigenvalues not converged
     c_bands:  1 eigenvalues not converged
     c_bands:  1 eigenvalues not converged
     c_bands:  5 eigenvalues not converged
     c_bands:  1 eigenvalues not converged
     c_bands:  1 eigenvalues not converged
     c_bands:  1 eigenvalues not converged
     ethr =  1.00E-02,  avg # of iterations = 38.6

     negative rho (up, down):  3.811E-07 0.000E+00

     total cpu time spent up to now is        9.2 secs

     total energy              =    -142.03448640 Ry
     estimated scf accuracy    <     183.27691415 Ry

     iteration #  3     ecut=    50.00 Ry     beta= 0.70
     Davidson diagonalization with overlap
     ethr =  1.00E-02,  avg # of iterations =  4.2

     total cpu time spent up to now is        9.4 secs

     total energy              =     -50.76745348 Ry
     estimated scf accuracy    <      63.35351741 Ry

     iteration #  4     ecut=    50.00 Ry     beta= 0.70
     Davidson diagonalization with overlap
     ethr =  1.00E-02,  avg # of iterations =  3.5

     total cpu time spent up to now is        9.6 secs

     total energy              =     -51.38115347 Ry
     estimated scf accuracy    <      15.08591270 Ry

     iteration #  5     ecut=    50.00 Ry     beta= 0.70
     Davidson diagonalization with overlap
     ethr =  1.00E-02,  avg # of iterations =  1.6

     total cpu time spent up to now is        9.7 secs

     total energy              =     -29.23396285 Ry
     estimated scf accuracy    <      15.21435252 Ry

     iteration #  6     ecut=    50.00 Ry     beta= 0.70
     Davidson diagonalization with overlap
     ethr =  1.00E-02,  avg # of iterations =  3.8

     total cpu time spent up to now is        9.8 secs

     total energy              =     -32.91456794 Ry
     estimated scf accuracy    <       3.61067003 Ry

     iteration #  7     ecut=    50.00 Ry     beta= 0.70
     Davidson diagonalization with overlap
     ethr =  1.00E-02,  avg # of iterations =  1.0

     negative rho (up, down):  1.268E-03 0.000E+00

     total cpu time spent up to now is        9.9 secs

     total energy              =     -27.09166990 Ry
     estimated scf accuracy    <       5.40086792 Ry

     iteration #  8     ecut=    50.00 Ry     beta= 0.70
     Davidson diagonalization with overlap
     ethr =  1.00E-02,  avg # of iterations =  1.5

     negative rho (up, down):  3.326E-01 0.000E+00

     total cpu time spent up to now is       10.0 secs

     total energy              =     -23.79239558 Ry
     estimated scf accuracy    <       2.32983405 Ry

     iteration #  9     ecut=    50.00 Ry     beta= 0.70
     Davidson diagonalization with overlap
     ethr =  1.00E-02,  avg # of iterations =  9.1

     negative rho (up, down):  3.338E-01 0.000E+00

     total cpu time spent up to now is       10.4 secs

     total energy              =     -71.63310223 Ry
     estimated scf accuracy    <     404.53076484 Ry

     iteration # 10     ecut=    50.00 Ry     beta= 0.70
     Davidson diagonalization with overlap
     ethr =  1.00E-02,  avg # of iterations =  1.1

     negative rho (up, down):  1.342E-03 0.000E+00

     total cpu time spent up to now is       10.5 secs

     total energy              =      -9.60489481 Ry
     estimated scf accuracy    <     404.48075880 Ry

     iteration # 11     ecut=    50.00 Ry     beta= 0.70
     Davidson diagonalization with overlap
     ethr =  1.00E-02,  avg # of iterations = 10.0

     total cpu time spent up to now is       10.8 secs

     total energy              =     -21.86661524 Ry
     estimated scf accuracy    <       1.94990007 Ry

     iteration # 12     ecut=    50.00 Ry     beta= 0.70
     Davidson diagonalization with overlap
     ethr =  1.00E-02,  avg # of iterations =  5.4

     total cpu time spent up to now is       11.0 secs

     total energy              =     -22.75727667 Ry
     estimated scf accuracy    <       0.04141417 Ry

     iteration # 13     ecut=    50.00 Ry     beta= 0.70
     Davidson diagonalization with overlap
     ethr =  5.18E-04,  avg # of iterations =  6.1

     negative rho (up, down):  1.361E-04 0.000E+00

     total cpu time spent up to now is       11.2 secs

     total energy              =     -22.77328089 Ry
     estimated scf accuracy    <       0.03056362 Ry

     iteration # 14     ecut=    50.00 Ry     beta= 0.70
     Davidson diagonalization with overlap
     ethr =  3.82E-04,  avg # of iterations =  1.6

     negative rho (up, down):  3.175E-02 0.000E+00

     total cpu time spent up to now is       11.3 secs

     total energy              =     -22.80036819 Ry
     estimated scf accuracy    <       0.02394992 Ry

     iteration # 15     ecut=    50.00 Ry     beta= 0.70
     Davidson diagonalization with overlap
     ethr =  2.99E-04,  avg # of iterations =  6.2

     negative rho (up, down):  3.978E-02 0.000E+00

     total cpu time spent up to now is       11.5 secs

     total energy              =     -22.77200550 Ry
     estimated scf accuracy    <       0.04452771 Ry

     iteration # 16     ecut=    50.00 Ry     beta= 0.70
     Davidson diagonalization with overlap
     ethr =  2.99E-04,  avg # of iterations =  4.6

     negative rho (up, down):  6.711E-03 0.000E+00

     total cpu time spent up to now is       11.7 secs

     total energy              =     -23.31076750 Ry
     estimated scf accuracy    <       0.03717050 Ry

     iteration # 17     ecut=    50.00 Ry     beta= 0.70
     Davidson diagonalization with overlap
     c_bands:  1 eigenvalues not converged
     ethr =  2.99E-04,  avg # of iterations = 10.9

     negative rho (up, down):  6.659E-03 0.000E+00

     total cpu time spent up to now is       11.9 secs

     total energy              =     -23.53477573 Ry
     estimated scf accuracy    <       0.30997803 Ry

     iteration # 18     ecut=    50.00 Ry     beta= 0.70
     Davidson diagonalization with overlap
     ethr =  2.99E-04,  avg # of iterations =  2.8

     negative rho (up, down):  6.748E-03 0.000E+00

     total cpu time spent up to now is       12.1 secs

     total energy              =     -23.21215463 Ry
     estimated scf accuracy    <       0.41648036 Ry

     iteration # 19     ecut=    50.00 Ry     beta= 0.70
     Davidson diagonalization with overlap
     ethr =  2.99E-04,  avg # of iterations =  2.4

     negative rho (up, down):  2.559E-02 0.000E+00

     total cpu time spent up to now is       12.2 secs

     total energy              =     -22.74461473 Ry
     estimated scf accuracy    <       0.24474318 Ry

     iteration # 20     ecut=    50.00 Ry     beta= 0.70
     Davidson diagonalization with overlap
     ethr =  2.99E-04,  avg # of iterations =  9.9

     negative rho (up, down):  2.434E-02 0.000E+00

     total cpu time spent up to now is       12.4 secs

     total energy              =     -22.76747094 Ry
     estimated scf accuracy    <       0.01256953 Ry

     iteration # 21     ecut=    50.00 Ry     beta= 0.70
     Davidson diagonalization with overlap
     ethr =  1.57E-04,  avg # of iterations =  7.1

     negative rho (up, down):  3.614E-02 0.000E+00

     total cpu time spent up to now is       12.6 secs

     total energy              =     -22.77112172 Ry
     estimated scf accuracy    <       0.01418360 Ry

     iteration # 22     ecut=    50.00 Ry     beta= 0.70
     Davidson diagonalization with overlap
     ethr =  1.57E-04,  avg # of iterations =  1.1

     negative rho (up, down):  3.595E-03 0.000E+00

     total cpu time spent up to now is       12.7 secs

     total energy              =     -22.75877417 Ry
     estimated scf accuracy    <       0.01992133 Ry

     iteration # 23     ecut=    50.00 Ry     beta= 0.70
     Davidson diagonalization with overlap
     ethr =  1.57E-04,  avg # of iterations =  5.1

     negative rho (up, down):  1.653E-04 0.000E+00

     total cpu time spent up to now is       12.9 secs

     total energy              =     -22.76049584 Ry
     estimated scf accuracy    <       0.00076783 Ry

     iteration # 24     ecut=    50.00 Ry     beta= 0.70
     Davidson diagonalization with overlap
     c_bands:  1 eigenvalues not converged
     c_bands:  1 eigenvalues not converged
     c_bands:  1 eigenvalues not converged
     ethr =  9.60E-06,  avg # of iterations = 10.5

     negative rho (up, down):  1.122E-04 0.000E+00

     total cpu time spent up to now is       13.2 secs

     total energy              =     -22.76056876 Ry
     estimated scf accuracy    <       0.00000180 Ry

     iteration # 25     ecut=    50.00 Ry     beta= 0.70
     Davidson diagonalization with overlap
     ethr =  2.25E-08,  avg # of iterations =  6.3

     negative rho (up, down):  8.491E-06 0.000E+00

     total cpu time spent up to now is       13.4 secs

     total energy              =     -22.76056794 Ry
     estimated scf accuracy    <       0.00000539 Ry

     iteration # 26     ecut=    50.00 Ry     beta= 0.70
     Davidson diagonalization with overlap
     ethr =  2.25E-08,  avg # of iterations =  5.7

     total cpu time spent up to now is       13.5 secs

     total energy              =     -22.76056838 Ry
     estimated scf accuracy    <       0.00000002 Ry

     iteration # 27     ecut=    50.00 Ry     beta= 0.70
     Davidson diagonalization with overlap
     ethr =  2.87E-10,  avg # of iterations =  3.0

     total cpu time spent up to now is       13.7 secs

     total energy              =     -22.76056840 Ry
     estimated scf accuracy    <          6.1E-09 Ry

     iteration # 28     ecut=    50.00 Ry     beta= 0.70
     Davidson diagonalization with overlap
     ethr =  7.57E-11,  avg # of iterations =  2.0

     total cpu time spent up to now is       13.8 secs

     End of self-consistent calculation

          k = 0.0000 0.0000 0.0000 (  3715 PWs)   bands (ev):

   -24.2320 -12.1984  -7.0007  -7.0007  -0.9999  -0.2136   0.5593   0.9173

          k =-0.0000 0.0711 0.0000 (  3709 PWs)   bands (ev):

   -24.1220 -12.0647  -7.4386  -7.2403  -0.8496  -0.0610   0.7128   1.0703

          k =-0.0000 0.1422 0.0000 (  3686 PWs)   bands (ev):

   -23.7926 -11.6643  -8.6113  -7.8539  -0.3987   0.3968   1.1734   1.5291

          k =-0.0000 0.2133 0.0000 (  3688 PWs)   bands (ev):

   -23.2458 -11.0065 -10.2299  -8.6172   0.3525   1.1575   1.9410   2.2916

          k =-0.0000 0.2844 0.0000 (  3662 PWs)   bands (ev):

   -22.4851 -12.0454 -10.1024  -9.3548   1.4023   2.2014   3.0148   3.2151

          k =-0.0000 0.3555 0.0000 (  3676 PWs)   bands (ev):

   -21.5179 -13.9051  -9.9700  -8.9899   1.2400   2.7447   3.6171   4.3485

          k =-0.0000 0.4266 0.0000 (  3706 PWs)   bands (ev):

   -20.3574 -15.6950 -10.4104  -7.7583  -0.6643   4.1803   4.4899   5.2718

          k =-0.0000 0.4977 0.0000 (  3688 PWs)   bands (ev):

   -19.0554 -17.3148 -10.6335  -6.7180  -2.0606   4.1677   6.3229   7.2128

          k = 0.0616 0.1066 0.0000 (  3685 PWs)   bands (ev):

   -23.9024 -11.7968  -8.1837  -7.7270  -0.5490   0.2444   1.0199   1.3763

          k = 0.0616 0.1777 0.0000 (  3677 PWs)   bands (ev):

   -23.4642 -11.2670  -9.4898  -8.5115   0.0525   0.8539   1.6342   1.9874

          k = 0.0616 0.2488 0.0000 (  3669 PWs)   bands (ev):

   -22.8104 -11.1477 -10.4847  -9.3224   0.9538   1.7634   2.5554   2.8981

          k = 0.0616 0.3199 0.0000 (  3657 PWs)   bands (ev):

   -21.9465 -12.9518 -10.0268  -9.4725   2.1518   2.1551   3.0209   3.7819

          k = 0.0616 0.3910 0.0000 (  3685 PWs)   bands (ev):

   -20.8822 -14.7620 -10.5687  -8.2834   0.2171   3.6370   4.5097   4.8494

          k = 0.0616 0.4621 0.0000 (  3702 PWs)   bands (ev):

   -19.6387 -16.4732 -10.9064  -7.0772  -1.4919   4.6791   5.4534   6.3031

          k = 0.0616 0.5332 0.0000 (  3672 PWs)   bands (ev):

   -18.5422 -17.7208 -11.0164  -6.4327  -2.3083   4.6445   7.4045   7.5581

          k = 0.1231 0.2133 0.0000 (  3675 PWs)   bands (ev):

   -22.9192 -10.6260 -10.6131  -9.5522   0.8045   1.6140   2.4024   2.7498

          k = 0.1231 0.2844 0.0000 (  3677 PWs)   bands (ev):

   -22.1623 -12.0868 -10.5162  -9.7180   1.8550   2.6427   2.8251   3.4773

          k = 0.1231 0.3555 0.0000 (  3679 PWs)   bands (ev):

   -21.2011 -13.7635 -11.2248  -8.6128   0.9624   3.1995   4.0344   4.8574

          k = 0.1231 0.4266 0.0000 (  3683 PWs)   bands (ev):

   -20.0491 -15.4661 -11.6917  -7.3811  -0.8128   4.8273   5.6637   6.0777

          k = 0.1231 0.4977 0.0000 (  3673 PWs)   bands (ev):

   -18.7641 -17.0377 -11.9255  -6.3184  -2.1681   5.9637   6.7521   7.4722

          k = 0.1847 0.3199 0.0000 (  3695 PWs)   bands (ev):

   -21.3082 -13.1243 -11.7823  -8.7248   1.2729   3.0517   3.8679   4.7055

          k = 0.1847 0.3910 0.0000 (  3679 PWs)   bands (ev):

   -20.2581 -14.4736 -12.6396  -7.5498  -0.3266   4.5365   5.3208   6.2379

          k = 0.1847 0.4621 0.0000 (  3665 PWs)   bands (ev):

   -19.0395 -15.9950 -13.0729  -6.3230  -1.8364   6.2906   6.8552   7.8085

          k = 0.1847 0.5332 0.0000 (  3634 PWs)   bands (ev):

   -17.9860 -17.1643 -13.2027  -5.6151  -2.6413   7.5538   7.7450   8.1733

          k = 0.2463 0.4266 0.0000 (  3665 PWs)   bands (ev):

   -19.1377 -15.2477 -13.8670  -6.3403  -1.6641   6.1449   6.6035   7.8786

          k = 0.2463 0.4977 0.0000 (  3643 PWs)   bands (ev):

   -17.9088 -16.3758 -14.4298  -5.1727  -2.8891   6.9636   7.9638   9.4119

          k = 0.3079 0.5332 0.0000 (  3681 PWs)   bands (ev):

   -16.8840 -16.8840 -15.1718  -4.0083  -4.0083   6.7366   9.4184   9.4184

     the Fermi energy is    -4.0083 ev

!    total energy              =     -22.76056840 Ry
     estimated scf accuracy    <          7.6E-11 Ry
     smearing contrib. (-TS)   =      -0.00005015 Ry
     internal energy E=F+TS    =     -22.76051825 Ry

     The total energy is F=E-TS. E is the sum of the following terms:
     one-electron contribution =    -408.25461120 Ry
     hartree contribution      =     204.80275694 Ry
     xc contribution           =      -7.12564860 Ry
     ewald contribution        =     187.81698460 Ry

     convergence has been achieved in  28 iterations

     Forces acting on atoms (cartesian axes, Ry/au):

     atom    1 type  1   force =     0.00000000    0.00000000    0.00000000
     atom    2 type  1   force =     0.00000000    0.00000000    0.00000000

     Total force =     0.000000     Total SCF correction =     0.000000


     Computing stress (Cartesian axis) and pressure

          total   stress  (Ry/bohr**3)                   (kbar)     P=        9.04
   0.00016486  -0.00000000  -0.00000000           24.25       -0.00       -0.00
  -0.00000000   0.00016486   0.00000000           -0.00       24.25        0.00
  -0.00000000   0.00000000  -0.00014530           -0.00        0.00      -21.37

     Energy error            =      1.9E-02
     Gradient error          =      0.0E+00
     Cell gradient error     =      1.6E-04


     number of scf cycles    =   3
     number of bfgs steps    =   2

     enthalpy old            =     -22.7411965282 Ry
     enthalpy new            =     -22.7605684041 Ry

     CASE: enthalpy_new < enthalpy_old

     new trust radius        =       0.0475679097 bohr
     new conv_thr            =            1.0E-10 Ry

     new unit-cell volume =    734.75456 a.u.^3 (   108.87939 Ang^3 )
     density =      0.36635 g/cm^3

CELL_PARAMETERS (alat=  4.19000000)
   1.092356242  -0.000000000   0.000000000
  -0.546178121   0.946008256   0.000000000
   0.000000000   0.000000000   9.665871122

ATOMIC_POSITIONS (crystal)
C             0.3333333333        0.6666666667        0.5000000000
C             0.6666666667        0.3333333333        0.5000000000



     Writing output data file ./work/LiC419.save/
     NEW-OLD atomic charge density approx. for the potential

     negative rho (up, down):  1.788E-05 0.000E+00
     extrapolated charge    8.13953, renormalised to    8.00000

     total cpu time spent up to now is       13.9 secs

     Self-consistent Calculation

     iteration #  1     ecut=    50.00 Ry     beta= 0.70
     Davidson diagonalization with overlap
     c_bands:  2 eigenvalues not converged
     c_bands:  1 eigenvalues not converged
     c_bands:  1 eigenvalues not converged
     c_bands:  2 eigenvalues not converged
     ethr =  1.00E-06,  avg # of iterations = 14.5

     total cpu time spent up to now is       14.3 secs

     total energy              =      84.69187782 Ry
     estimated scf accuracy    <      62.06213185 Ry

     iteration #  2     ecut=    50.00 Ry     beta= 0.70
     Davidson diagonalization with overlap
     c_bands:  3 eigenvalues not converged
     c_bands:  4 eigenvalues not converged
     c_bands:  1 eigenvalues not converged
     c_bands:  1 eigenvalues not converged
     c_bands:  3 eigenvalues not converged
     c_bands:  4 eigenvalues not converged
     c_bands:  3 eigenvalues not converged
     c_bands:  1 eigenvalues not converged
     c_bands:  1 eigenvalues not converged
     c_bands:  1 eigenvalues not converged
     c_bands:  1 eigenvalues not converged
     c_bands:  1 eigenvalues not converged
     ethr =  1.00E-02,  avg # of iterations = 18.0

     total cpu time spent up to now is       14.8 secs

     total energy              =     -42.20522344 Ry
     estimated scf accuracy    <      32.48495290 Ry

     iteration #  3     ecut=    50.00 Ry     beta= 0.70
     Davidson diagonalization with overlap
     ethr =  1.00E-02,  avg # of iterations =  4.5

     total cpu time spent up to now is       15.0 secs

     total energy              =     -29.48310735 Ry
     estimated scf accuracy    <      11.08219256 Ry

     iteration #  4     ecut=    50.00 Ry     beta= 0.70
     Davidson diagonalization with overlap
     ethr =  1.00E-02,  avg # of iterations =  2.9

     total cpu time spent up to now is       15.1 secs

     total energy              =     -26.57115342 Ry
     estimated scf accuracy    <       3.80759300 Ry

     iteration #  5     ecut=    50.00 Ry     beta= 0.70
     Davidson diagonalization with overlap
     ethr =  1.00E-02,  avg # of iterations =  1.4

     total cpu time spent up to now is       15.2 secs

     total energy              =     -23.69955889 Ry
     estimated scf accuracy    <       2.17766643 Ry

     iteration #  6     ecut=    50.00 Ry     beta= 0.70
     Davidson diagonalization with overlap
     ethr =  1.00E-02,  avg # of iterations =  2.5

     total cpu time spent up to now is       15.3 secs

     total energy              =     -23.57288690 Ry
     estimated scf accuracy    <       0.57313670 Ry

     iteration #  7     ecut=    50.00 Ry     beta= 0.70
     Davidson diagonalization with overlap
     ethr =  7.16E-03,  avg # of iterations =  2.4

     total cpu time spent up to now is       15.4 secs

     total energy              =     -23.99891458 Ry
     estimated scf accuracy    <       0.49243738 Ry

     iteration #  8     ecut=    50.00 Ry     beta= 0.70
     Davidson diagonalization with overlap
     ethr =  6.16E-03,  avg # of iterations =  1.0

     total cpu time spent up to now is       15.5 secs

     total energy              =     -24.00988992 Ry
     estimated scf accuracy    <       0.69947246 Ry

     iteration #  9     ecut=    50.00 Ry     beta= 0.70
     Davidson diagonalization with overlap
     ethr =  6.16E-03,  avg # of iterations =  1.0

     total cpu time spent up to now is       15.6 secs

     total energy              =     -24.05649523 Ry
     estimated scf accuracy    <       0.70411455 Ry

     iteration # 10     ecut=    50.00 Ry     beta= 0.70
     Davidson diagonalization with overlap
     ethr =  6.16E-03,  avg # of iterations =  1.1

     negative rho (up, down):  1.183E-06 0.000E+00

     total cpu time spent up to now is       15.8 secs

     total energy              =     -22.72603378 Ry
     estimated scf accuracy    <       0.73037914 Ry

     iteration # 11     ecut=    50.00 Ry     beta= 0.70
     Davidson diagonalization with overlap
     ethr =  6.16E-03,  avg # of iterations =  5.3

     negative rho (up, down):  2.724E-05 0.000E+00

     total cpu time spent up to now is       15.9 secs

     total energy              =     -22.76261757 Ry
     estimated scf accuracy    <       0.00970686 Ry

     iteration # 12     ecut=    50.00 Ry     beta= 0.70
     Davidson diagonalization with overlap
     ethr =  1.21E-04,  avg # of iterations =  9.2

     negative rho (up, down):  6.076E-05 0.000E+00

     total cpu time spent up to now is       16.2 secs

     total energy              =     -22.76206136 Ry
     estimated scf accuracy    <       0.00355252 Ry

     iteration # 13     ecut=    50.00 Ry     beta= 0.70
     Davidson diagonalization with overlap
     ethr =  4.44E-05,  avg # of iterations =  1.8

     negative rho (up, down):  8.552E-05 0.000E+00

     total cpu time spent up to now is       16.3 secs

     total energy              =     -22.76232534 Ry
     estimated scf accuracy    <       0.00135249 Ry

     iteration # 14     ecut=    50.00 Ry     beta= 0.70
     Davidson diagonalization with overlap
     ethr =  1.69E-05,  avg # of iterations =  1.3

     negative rho (up, down):  3.310E-04 0.000E+00

     total cpu time spent up to now is       16.4 secs

     total energy              =     -22.76246494 Ry
     estimated scf accuracy    <       0.00168323 Ry

     iteration # 15     ecut=    50.00 Ry     beta= 0.70
     Davidson diagonalization with overlap
     ethr =  1.69E-05,  avg # of iterations =  2.9

     negative rho (up, down):  6.107E-05 0.000E+00

     total cpu time spent up to now is       16.5 secs

     total energy              =     -22.76247774 Ry
     estimated scf accuracy    <       0.00197475 Ry

     iteration # 16     ecut=    50.00 Ry     beta= 0.70
     Davidson diagonalization with overlap
     ethr =  1.69E-05,  avg # of iterations =  1.5

     negative rho (up, down):  3.690E-07 0.000E+00

     total cpu time spent up to now is       16.6 secs

     total energy              =     -22.76179103 Ry
     estimated scf accuracy    <       0.00261444 Ry

     iteration # 17     ecut=    50.00 Ry     beta= 0.70
     Davidson diagonalization with overlap
     c_bands:  1 eigenvalues not converged
     ethr =  1.69E-05,  avg # of iterations =  6.9

     total cpu time spent up to now is       16.8 secs

     total energy              =     -22.76142972 Ry
     estimated scf accuracy    <       0.00234630 Ry

     iteration # 18     ecut=    50.00 Ry     beta= 0.70
     Davidson diagonalization with overlap
     ethr =  1.69E-05,  avg # of iterations =  2.3

     negative rho (up, down):  1.804E-05 0.000E+00

     total cpu time spent up to now is       17.0 secs

     total energy              =     -22.76173549 Ry
     estimated scf accuracy    <       0.00015791 Ry

     iteration # 19     ecut=    50.00 Ry     beta= 0.70
     Davidson diagonalization with overlap
     ethr =  1.97E-06,  avg # of iterations =  5.2

     total cpu time spent up to now is       17.1 secs

     total energy              =     -22.76174561 Ry
     estimated scf accuracy    <       0.00000126 Ry

     iteration # 20     ecut=    50.00 Ry     beta= 0.70
     Davidson diagonalization with overlap
     ethr =  1.57E-08,  avg # of iterations =  2.2

     total cpu time spent up to now is       17.2 secs

     total energy              =     -22.76174603 Ry
     estimated scf accuracy    <       0.00000013 Ry

     iteration # 21     ecut=    50.00 Ry     beta= 0.70
     Davidson diagonalization with overlap
     ethr =  1.57E-09,  avg # of iterations =  3.3

     total cpu time spent up to now is       17.4 secs

     total energy              =     -22.76174606 Ry
     estimated scf accuracy    <          1.5E-09 Ry

     iteration # 22     ecut=    50.00 Ry     beta= 0.70
     Davidson diagonalization with overlap
     ethr =  1.90E-11,  avg # of iterations =  3.3

     total cpu time spent up to now is       17.5 secs

     total energy              =     -22.76174606 Ry
     estimated scf accuracy    <          5.3E-10 Ry

     iteration # 23     ecut=    50.00 Ry     beta= 0.70
     Davidson diagonalization with overlap
     ethr =  6.64E-12,  avg # of iterations =  2.0

     total cpu time spent up to now is       17.7 secs

     End of self-consistent calculation

          k = 0.0000 0.0000 0.0000 (  3715 PWs)   bands (ev):

   -24.1002 -12.0939  -7.0888  -7.0888  -0.9957  -0.2146   0.5596   0.9188

          k = 0.0000 0.0705 0.0000 (  3709 PWs)   bands (ev):

   -23.9918 -11.9631  -7.5222  -7.3217  -0.8480  -0.0647   0.7105   1.0691

          k = 0.0000 0.1409 0.0000 (  3686 PWs)   bands (ev):

   -23.6672 -11.5711  -8.6824  -7.9194  -0.4049   0.3849   1.1630   1.5196

          k = 0.0000 0.2114 0.0000 (  3688 PWs)   bands (ev):

   -23.1284 -10.9273 -10.2816  -8.6640   0.3335   1.1318   1.9172   2.2683

          k = 0.0000 0.2819 0.0000 (  3662 PWs)   bands (ev):

   -22.3790 -12.0735 -10.0427  -9.3845   1.3651   2.1527   2.9718   3.0318

          k = 0.0000 0.3524 0.0000 (  3676 PWs)   bands (ev):

   -21.4267 -13.9074  -9.9860  -8.9550   1.0522   2.6833   3.5452   4.1053

          k = 0.0000 0.4228 0.0000 (  3706 PWs)   bands (ev):

   -20.2858 -15.6695 -10.4174  -7.7527  -0.8017   3.8824   4.3480   5.1705

          k = 0.0000 0.4933 0.0000 (  3688 PWs)   bands (ev):

   -19.0171 -17.2511 -10.6358  -6.7399  -2.1587   3.8141   6.1972   7.0745

          k = 0.0610 0.1057 0.0000 (  3685 PWs)   bands (ev):

   -23.7753 -11.7008  -8.2603  -7.7956  -0.5525   0.2352   1.0122   1.3696

          k = 0.0610 0.1762 0.0000 (  3677 PWs)   bands (ev):

   -23.3435 -11.1821  -9.5530  -8.5612   0.0386   0.8338   1.6158   1.9697

          k = 0.0610 0.2467 0.0000 (  3669 PWs)   bands (ev):

   -22.6994 -11.1899 -10.4166  -9.3544   0.9243   1.7265   2.5208   2.8630

          k = 0.0610 0.3171 0.0000 (  3657 PWs)   bands (ev):

   -21.8486 -12.9690 -10.0441  -9.4266   1.9450   2.1014   2.9548   3.7251

          k = 0.0610 0.3876 0.0000 (  3685 PWs)   bands (ev):

   -20.8013 -14.7524 -10.5754  -8.2648   0.0537   3.5584   4.4225   4.5063

          k = 0.0610 0.4581 0.0000 (  3702 PWs)   bands (ev):

   -19.5814 -16.4332 -10.9067  -7.0886  -1.6089   4.3288   5.3377   6.1819

          k = 0.0610 0.5285 0.0000 (  3672 PWs)   bands (ev):

   -18.5361 -17.6267 -11.0145  -6.4621  -2.4014   4.2855   7.2572   7.4131

          k = 0.1221 0.2114 0.0000 (  3675 PWs)   bands (ev):

   -22.8066 -10.6814 -10.5422  -9.5769   0.7776   1.5802   2.3705   2.7184

          k = 0.1221 0.2819 0.0000 (  3677 PWs)   bands (ev):

   -22.0611 -12.1240 -10.5226  -9.6666   1.8097   2.5130   2.6618   3.4265

          k = 0.1221 0.3524 0.0000 (  3679 PWs)   bands (ev):

   -21.1147 -13.7740 -11.2212  -8.5862   0.7724   3.1306   3.9557   4.7818

          k = 0.1221 0.4228 0.0000 (  3683 PWs)   bands (ev):

   -19.9823 -15.4476 -11.6817  -7.3836  -0.9551   4.7282   5.5541   5.7170

          k = 0.1221 0.4933 0.0000 (  3673 PWs)   bands (ev):

   -18.7298 -16.9813 -11.9122  -6.3488  -2.2725   5.5960   6.6160   7.3220

          k = 0.1831 0.3171 0.0000 (  3695 PWs)   bands (ev):

   -21.2201 -13.1588 -11.7582  -8.6955   1.0698   2.9854   3.7927   4.6330

          k = 0.1831 0.3876 0.0000 (  3679 PWs)   bands (ev):

   -20.1870 -14.4855 -12.6044  -7.5475  -0.4893   4.4439   5.2175   6.1381

          k = 0.1831 0.4581 0.0000 (  3665 PWs)   bands (ev):

   -18.9916 -15.9729 -13.0372  -6.3505  -1.9599   6.1653   6.7170   7.4335

          k = 0.1831 0.5285 0.0000 (  3634 PWs)   bands (ev):

   -17.9834 -17.0931 -13.1667  -5.6618  -2.7421   7.3628   7.3969   8.0067

          k = 0.2441 0.4228 0.0000 (  3665 PWs)   bands (ev):

   -19.0864 -15.2649 -13.7949  -6.3664  -1.7974   6.0228   6.4718   7.7871

          k = 0.2441 0.4933 0.0000 (  3643 PWs)   bands (ev):

   -17.8873 -16.3622 -14.3520  -5.2274  -2.9931   6.8299   7.8028   9.1165

          k = 0.3052 0.5285 0.0000 (  3681 PWs)   bands (ev):

   -16.8889 -16.8889 -15.0473  -4.0895  -4.0895   9.1792   9.1792   9.6642

     the Fermi energy is    -4.0895 ev

!    total energy              =     -22.76174606 Ry
     estimated scf accuracy    <          3.2E-11 Ry
     smearing contrib. (-TS)   =      -0.00005015 Ry
     internal energy E=F+TS    =     -22.76169591 Ry

     The total energy is F=E-TS. E is the sum of the following terms:
     one-electron contribution =    -401.02798924 Ry
     hartree contribution      =     201.17022519 Ry
     xc contribution           =      -7.08636329 Ry
     ewald contribution        =     184.18243143 Ry

     convergence has been achieved in  23 iterations

     Forces acting on atoms (cartesian axes, Ry/au):

     atom    1 type  1   force =     0.00000000    0.00000000    0.00000000
     atom    2 type  1   force =    -0.00000000   -0.00000000    0.00000000

     Total force =     0.000000     Total SCF correction =     0.000000


     Computing stress (Cartesian axis) and pressure

          total   stress  (Ry/bohr**3)                   (kbar)     P=       -5.11
   0.00002069  -0.00000000   0.00000000            3.04       -0.00        0.00
  -0.00000000   0.00002069  -0.00000000           -0.00        3.04       -0.00
   0.00000000   0.00000000  -0.00014553            0.00        0.00      -21.41

     Energy error            =      1.2E-03
     Gradient error          =      1.6E-26
     Cell gradient error     =      2.1E-05


     number of scf cycles    =   4
     number of bfgs steps    =   3

     enthalpy old            =     -22.7605684041 Ry
     enthalpy new            =     -22.7617460577 Ry

     CASE: enthalpy_new < enthalpy_old

     new trust radius        =       0.0068974652 bohr
     new conv_thr            =            1.0E-10 Ry

     new unit-cell volume =    736.62540 a.u.^3 (   109.15662 Ang^3 )
     density =      0.36542 g/cm^3

CELL_PARAMETERS (alat=  4.19000000)
   1.093746044  -0.000000000   0.000000000
  -0.546873022   0.947211859   0.000000000
   0.000000000   0.000000000   9.665871122

ATOMIC_POSITIONS (crystal)
C             0.3333333333        0.6666666667        0.5000000000
C             0.6666666667        0.3333333333        0.5000000000



     Writing output data file ./work/LiC419.save/
     NEW-OLD atomic charge density approx. for the potential

     negative rho (up, down):  2.345E-07 0.000E+00
     extrapolated charge    8.02028, renormalised to    8.00000

     total cpu time spent up to now is       17.7 secs

     Self-consistent Calculation

     iteration #  1     ecut=    50.00 Ry     beta= 0.70
     Davidson diagonalization with overlap
     c_bands:  1 eigenvalues not converged
     c_bands:  1 eigenvalues not converged
     c_bands:  1 eigenvalues not converged
     c_bands:  2 eigenvalues not converged
     ethr =  1.00E-06,  avg # of iterations = 13.2

     total cpu time spent up to now is       18.1 secs

     total energy              =     -22.76150545 Ry
     estimated scf accuracy    <       0.00013411 Ry

     iteration #  2     ecut=    50.00 Ry     beta= 0.70
     Davidson diagonalization with overlap
     c_bands:  1 eigenvalues not converged
     c_bands:  1 eigenvalues not converged
     c_bands:  1 eigenvalues not converged
     c_bands:  1 eigenvalues not converged
     c_bands:  1 eigenvalues not converged
     ethr =  1.68E-06,  avg # of iterations = 12.6

     total cpu time spent up to now is       18.4 secs

     total energy              =     -22.76177383 Ry
     estimated scf accuracy    <       0.00012605 Ry

     iteration #  3     ecut=    50.00 Ry     beta= 0.70
     Davidson diagonalization with overlap
     ethr =  1.58E-06,  avg # of iterations =  1.6

     total cpu time spent up to now is       18.5 secs

     total energy              =     -22.76176713 Ry
     estimated scf accuracy    <       0.00002871 Ry

     iteration #  4     ecut=    50.00 Ry     beta= 0.70
     Davidson diagonalization with overlap
     ethr =  3.59E-07,  avg # of iterations =  1.4

     total cpu time spent up to now is       18.6 secs

     total energy              =     -22.76176876 Ry
     estimated scf accuracy    <       0.00000588 Ry

     iteration #  5     ecut=    50.00 Ry     beta= 0.70
     Davidson diagonalization with overlap
     ethr =  7.35E-08,  avg # of iterations =  1.0

     total cpu time spent up to now is       18.7 secs

     total energy              =     -22.76176700 Ry
     estimated scf accuracy    <       0.00000594 Ry

     iteration #  6     ecut=    50.00 Ry     beta= 0.70
     Davidson diagonalization with overlap
     ethr =  7.35E-08,  avg # of iterations =  1.0

     total cpu time spent up to now is       18.8 secs

     total energy              =     -22.76176564 Ry
     estimated scf accuracy    <       0.00000236 Ry

     iteration #  7     ecut=    50.00 Ry     beta= 0.70
     Davidson diagonalization with overlap
     ethr =  2.95E-08,  avg # of iterations =  2.0

     total cpu time spent up to now is       18.9 secs

     total energy              =     -22.76176604 Ry
     estimated scf accuracy    <       0.00000008 Ry

     iteration #  8     ecut=    50.00 Ry     beta= 0.70
     Davidson diagonalization with overlap
     ethr =  1.04E-09,  avg # of iterations =  1.8

     total cpu time spent up to now is       19.0 secs

     total energy              =     -22.76176605 Ry
     estimated scf accuracy    <          8.3E-09 Ry

     iteration #  9     ecut=    50.00 Ry     beta= 0.70
     Davidson diagonalization with overlap
     ethr =  1.04E-10,  avg # of iterations =  2.0

     total cpu time spent up to now is       19.1 secs

     total energy              =     -22.76176605 Ry
     estimated scf accuracy    <          1.3E-09 Ry

     iteration # 10     ecut=    50.00 Ry     beta= 0.70
     Davidson diagonalization with overlap
     ethr =  1.68E-11,  avg # of iterations =  1.9

     total cpu time spent up to now is       19.3 secs

     total energy              =     -22.76176605 Ry
     estimated scf accuracy    <          3.5E-10 Ry

     iteration # 11     ecut=    50.00 Ry     beta= 0.70
     Davidson diagonalization with overlap
     ethr =  4.41E-12,  avg # of iterations =  2.0

     total cpu time spent up to now is       19.4 secs

     total energy              =     -22.76176605 Ry
     estimated scf accuracy    <          2.6E-10 Ry

     iteration # 12     ecut=    50.00 Ry     beta= 0.70
     Davidson diagonalization with overlap
     ethr =  3.27E-12,  avg # of iterations =  1.0

     total cpu time spent up to now is       19.5 secs

     total energy              =     -22.76176605 Ry
     estimated scf accuracy    <          1.1E-10 Ry

     iteration # 13     ecut=    50.00 Ry     beta= 0.70
     Davidson diagonalization with overlap
     ethr =  1.39E-12,  avg # of iterations =  1.0

     total cpu time spent up to now is       19.6 secs

     End of self-consistent calculation

          k = 0.0000 0.0000 0.0000 (  3715 PWs)   bands (ev):

   -24.0812 -12.0790  -7.1011  -7.1011  -0.9951  -0.2146   0.5597   0.9189

          k = 0.0000 0.0704 0.0000 (  3709 PWs)   bands (ev):

   -23.9730 -11.9486  -7.5340  -7.3331  -0.8478  -0.0650   0.7102   1.0688

          k = 0.0000 0.1408 0.0000 (  3686 PWs)   bands (ev):

   -23.6491 -11.5577  -8.6923  -7.9285  -0.4057   0.3834   1.1616   1.5182

          k = 0.0000 0.2111 0.0000 (  3688 PWs)   bands (ev):

   -23.1115 -10.9159 -10.2888  -8.6705   0.3308   1.1283   1.9139   2.2649

          k = 0.0000 0.2815 0.0000 (  3662 PWs)   bands (ev):

   -22.3637 -12.0774 -10.0342  -9.3885   1.3598   2.1457   2.9657   3.0022

          k = 0.0000 0.3519 0.0000 (  3676 PWs)   bands (ev):

   -21.4135 -13.9076  -9.9881  -8.9500   1.0253   2.6746   3.5351   4.0607

          k = 0.0000 0.4223 0.0000 (  3706 PWs)   bands (ev):

   -20.2755 -15.6656 -10.4182  -7.7518  -0.8213   3.8362   4.3313   5.1561

          k = 0.0000 0.4927 0.0000 (  3688 PWs)   bands (ev):

   -19.0116 -17.2418 -10.6360  -6.7430  -2.1728   3.7636   6.1794   7.0546

          k = 0.0610 0.1056 0.0000 (  3685 PWs)   bands (ev):

   -23.7570 -11.6871  -8.2711  -7.8052  -0.5530   0.2340   1.0111   1.3685

          k = 0.0610 0.1760 0.0000 (  3677 PWs)   bands (ev):

   -23.3261 -11.1700  -9.5619  -8.5680   0.0367   0.8311   1.6132   1.9671

          k = 0.0610 0.2463 0.0000 (  3669 PWs)   bands (ev):

   -22.6834 -11.1958 -10.4068  -9.3587   0.9201   1.7214   2.5159   2.8577

          k = 0.0610 0.3167 0.0000 (  3657 PWs)   bands (ev):

   -21.8344 -12.9713 -10.0463  -9.4200   1.9148   2.0942   2.9456   3.7169

          k = 0.0610 0.3871 0.0000 (  3685 PWs)   bands (ev):

   -20.7896 -14.7509 -10.5762  -8.2621   0.0303   3.5471   4.4099   4.4571

          k = 0.0610 0.4575 0.0000 (  3702 PWs)   bands (ev):

   -19.5732 -16.4273 -10.9066  -7.0902  -1.6256   4.2785   5.3216   6.1647

          k = 0.0610 0.5279 0.0000 (  3672 PWs)   bands (ev):

   -18.5350 -17.6132 -11.0140  -6.4663  -2.4147   4.2342   7.2361   7.3924

          k = 0.1219 0.2111 0.0000 (  3675 PWs)   bands (ev):

   -22.7903 -10.6892 -10.5321  -9.5802   0.7738   1.5755   2.3660   2.7138

          k = 0.1219 0.2815 0.0000 (  3677 PWs)   bands (ev):

   -22.0465 -12.1292 -10.5233  -9.6592   1.8033   2.4854   2.6474   3.4193

          k = 0.1219 0.3519 0.0000 (  3679 PWs)   bands (ev):

   -21.1023 -13.7754 -11.2204  -8.5824   0.7453   3.1208   3.9446   4.7709

          k = 0.1219 0.4223 0.0000 (  3683 PWs)   bands (ev):

   -19.9727 -15.4449 -11.6800  -7.3839  -0.9754   4.7140   5.5383   5.6652

          k = 0.1219 0.4927 0.0000 (  3673 PWs)   bands (ev):

   -18.7249 -16.9730 -11.9101  -6.3531  -2.2875   5.5433   6.5968   7.3005

          k = 0.1829 0.3167 0.0000 (  3695 PWs)   bands (ev):

   -21.2074 -13.1636 -11.7546  -8.6913   1.0409   2.9760   3.7820   4.6227

          k = 0.1829 0.3871 0.0000 (  3679 PWs)   bands (ev):

   -20.1767 -14.4870 -12.5991  -7.5471  -0.5125   4.4308   5.2026   6.1239

          k = 0.1829 0.4575 0.0000 (  3665 PWs)   bands (ev):

   -18.9847 -15.9696 -13.0318  -6.3544  -1.9775   6.1474   6.6973   7.3791

          k = 0.1829 0.5279 0.0000 (  3634 PWs)   bands (ev):

   -17.9828 -17.0830 -13.1612  -5.6684  -2.7565   7.3078   7.3746   7.9829

          k = 0.2438 0.4223 0.0000 (  3665 PWs)   bands (ev):

   -19.0790 -15.2672 -13.7844  -6.3701  -1.8164   6.0054   6.4531   7.7695

          k = 0.2438 0.4927 0.0000 (  3643 PWs)   bands (ev):

   -17.8841 -16.3603 -14.3405  -5.2352  -3.0079   6.8108   7.7797   9.2232

          k = 0.3048 0.5279 0.0000 (  3681 PWs)   bands (ev):

   -16.8894 -16.8894 -15.0294  -4.1010  -4.1010   6.5961   9.1445   9.1445

     the Fermi energy is    -4.1010 ev

!    total energy              =     -22.76176605 Ry
     estimated scf accuracy    <          4.6E-11 Ry
     smearing contrib. (-TS)   =      -0.00005015 Ry
     internal energy E=F+TS    =     -22.76171590 Ry

     The total energy is F=E-TS. E is the sum of the following terms:
     one-electron contribution =    -399.99616696 Ry
     hartree contribution      =     200.65159644 Ry
     xc contribution           =      -7.08073226 Ry
     ewald contribution        =     183.66358689 Ry

     convergence has been achieved in  13 iterations

     Forces acting on atoms (cartesian axes, Ry/au):

     atom    1 type  1   force =     0.00000000    0.00000000    0.00000000
     atom    2 type  1   force =    -0.00000000   -0.00000000    0.00000000

     Total force =     0.000000     Total SCF correction =     0.000000


     Computing stress (Cartesian axis) and pressure

          total   stress  (Ry/bohr**3)                   (kbar)     P=       -7.07
   0.00000071  -0.00000000  -0.00000000            0.10       -0.00       -0.00
  -0.00000000   0.00000071  -0.00000000           -0.00        0.10       -0.00
   0.00000000   0.00000000  -0.00014555            0.00        0.00      -21.41

     Energy error            =      2.0E-05
     Gradient error          =      1.6E-26
     Cell gradient error     =      7.1E-07


     number of scf cycles    =   5
     number of bfgs steps    =   4

     enthalpy old            =     -22.7617460577 Ry
     enthalpy new            =     -22.7617660466 Ry

     CASE: enthalpy_new < enthalpy_old

     new trust radius        =       0.0002460597 bohr
     new conv_thr            =            1.0E-10 Ry

     new unit-cell volume =    736.69219 a.u.^3 (   109.16652 Ang^3 )
     density =      0.36539 g/cm^3

CELL_PARAMETERS (alat=  4.19000000)
   1.093795623  -0.000000000   0.000000000
  -0.546897812   0.947254796   0.000000000
   0.000000000   0.000000000   9.665871122

ATOMIC_POSITIONS (crystal)
C             0.3333333333        0.6666666667        0.5000000000
C             0.6666666667        0.3333333333        0.5000000000



     Writing output data file ./work/LiC419.save/
     NEW-OLD atomic charge density approx. for the potential
     extrapolated charge    8.00072, renormalised to    8.00000

     total cpu time spent up to now is       19.7 secs

     Self-consistent Calculation

     iteration #  1     ecut=    50.00 Ry     beta= 0.70
     Davidson diagonalization with overlap
     ethr =  1.00E-06,  avg # of iterations =  2.4

     Threshold (ethr) on eigenvalues was too large:
     Diagonalizing with lowered threshold

     Davidson diagonalization with overlap
     ethr =  1.88E-09,  avg # of iterations =  1.3

     total cpu time spent up to now is       19.9 secs

     total energy              =     -22.76176575 Ry
     estimated scf accuracy    <       0.00000016 Ry

     iteration #  2     ecut=    50.00 Ry     beta= 0.70
     Davidson diagonalization with overlap
     ethr =  2.06E-09,  avg # of iterations =  3.0

     total cpu time spent up to now is       20.0 secs

     total energy              =     -22.76176608 Ry
     estimated scf accuracy    <       0.00000015 Ry

     iteration #  3     ecut=    50.00 Ry     beta= 0.70
     Davidson diagonalization with overlap
     ethr =  1.87E-09,  avg # of iterations =  1.0

     total cpu time spent up to now is       20.1 secs

     total energy              =     -22.76176607 Ry
     estimated scf accuracy    <       0.00000003 Ry

     iteration #  4     ecut=    50.00 Ry     beta= 0.70
     Davidson diagonalization with overlap
     ethr =  4.30E-10,  avg # of iterations =  2.0

     total cpu time spent up to now is       20.3 secs

     total energy              =     -22.76176607 Ry
     estimated scf accuracy    <          5.3E-09 Ry

     iteration #  5     ecut=    50.00 Ry     beta= 0.70
     Davidson diagonalization with overlap
     ethr =  6.57E-11,  avg # of iterations =  1.0

     total cpu time spent up to now is       20.4 secs

     total energy              =     -22.76176607 Ry
     estimated scf accuracy    <          5.2E-09 Ry

     iteration #  6     ecut=    50.00 Ry     beta= 0.70
     Davidson diagonalization with overlap
     ethr =  6.50E-11,  avg # of iterations =  1.0

     total cpu time spent up to now is       20.5 secs

     total energy              =     -22.76176607 Ry
     estimated scf accuracy    <          7.3E-09 Ry

     iteration #  7     ecut=    50.00 Ry     beta= 0.70
     Davidson diagonalization with overlap
     ethr =  6.50E-11,  avg # of iterations =  2.0

     total cpu time spent up to now is       20.6 secs

     total energy              =     -22.76176607 Ry
     estimated scf accuracy    <          4.1E-09 Ry

     iteration #  8     ecut=    50.00 Ry     beta= 0.70
     Davidson diagonalization with overlap
     ethr =  5.08E-11,  avg # of iterations =  1.6

     total cpu time spent up to now is       20.7 secs

     End of self-consistent calculation

          k = 0.0000 0.0000 0.0000 (  3715 PWs)   bands (ev):

   -24.0805 -12.0784  -7.1015  -7.1015  -0.9951  -0.2146   0.5597   0.9189

          k = 0.0000 0.0704 0.0000 (  3709 PWs)   bands (ev):

   -23.9723 -11.9480  -7.5343  -7.3334  -0.8478  -0.0651   0.7101   1.0688

          k = 0.0000 0.1408 0.0000 (  3686 PWs)   bands (ev):

   -23.6484 -11.5572  -8.6926  -7.9288  -0.4057   0.3833   1.1615   1.5181

          k = 0.0000 0.2111 0.0000 (  3688 PWs)   bands (ev):

   -23.1108 -10.9155 -10.2890  -8.6707   0.3307   1.1281   1.9137   2.2648

          k = 0.0000 0.2815 0.0000 (  3662 PWs)   bands (ev):

   -22.3631 -12.0775 -10.0338  -9.3886   1.3596   2.1455   2.9655   3.0012

          k = 0.0000 0.3519 0.0000 (  3676 PWs)   bands (ev):

   -21.4130 -13.9076  -9.9881  -8.9498   1.0244   2.6742   3.5347   4.0593

          k = 0.0000 0.4223 0.0000 (  3706 PWs)   bands (ev):

   -20.2751 -15.6654 -10.4182  -7.7518  -0.8220   3.8346   4.3307   5.1556

          k = 0.0000 0.4927 0.0000 (  3688 PWs)   bands (ev):

   -19.0113 -17.2414 -10.6359  -6.7431  -2.1732   3.7618   6.1787   7.0539

          k = 0.0609 0.1056 0.0000 (  3685 PWs)   bands (ev):

   -23.7563 -11.6866  -8.2714  -7.8054  -0.5530   0.2340   1.0111   1.3685

          k = 0.0609 0.1759 0.0000 (  3677 PWs)   bands (ev):

   -23.3255 -11.1695  -9.5621  -8.5682   0.0366   0.8310   1.6131   1.9670

          k = 0.0609 0.2463 0.0000 (  3669 PWs)   bands (ev):

   -22.6828 -11.1960 -10.4064  -9.3588   0.9200   1.7212   2.5157   2.8574

          k = 0.0609 0.3167 0.0000 (  3657 PWs)   bands (ev):

   -21.8339 -12.9713 -10.0464  -9.4198   1.9138   2.0940   2.9453   3.7165

          k = 0.0609 0.3871 0.0000 (  3685 PWs)   bands (ev):

   -20.7891 -14.7507 -10.5762  -8.2619   0.0295   3.5467   4.4094   4.4554

          k = 0.0609 0.4575 0.0000 (  3702 PWs)   bands (ev):

   -19.5728 -16.4270 -10.9065  -7.0902  -1.6261   4.2767   5.3210   6.1641

          k = 0.0609 0.5278 0.0000 (  3672 PWs)   bands (ev):

   -18.5349 -17.6127 -11.0139  -6.4664  -2.4151   4.2324   7.2354   7.3917

          k = 0.1219 0.2111 0.0000 (  3675 PWs)   bands (ev):

   -22.7897 -10.6894 -10.5317  -9.5803   0.7736   1.5753   2.3658   2.7136

          k = 0.1219 0.2815 0.0000 (  3677 PWs)   bands (ev):

   -22.0459 -12.1293 -10.5233  -9.6589   1.8030   2.4845   2.6469   3.4190

          k = 0.1219 0.3519 0.0000 (  3679 PWs)   bands (ev):

   -21.1018 -13.7754 -11.2203  -8.5822   0.7444   3.1205   3.9442   4.7705

          k = 0.1219 0.4223 0.0000 (  3683 PWs)   bands (ev):

   -19.9723 -15.4447 -11.6799  -7.3839  -0.9761   4.7135   5.5377   5.6634

          k = 0.1219 0.4927 0.0000 (  3673 PWs)   bands (ev):

   -18.7246 -16.9727 -11.9100  -6.3532  -2.2879   5.5415   6.5961   7.2997

          k = 0.1828 0.3167 0.0000 (  3695 PWs)   bands (ev):

   -21.2069 -13.1637 -11.7544  -8.6911   1.0399   2.9756   3.7816   4.6224

          k = 0.1828 0.3871 0.0000 (  3679 PWs)   bands (ev):

   -20.1763 -14.4871 -12.5989  -7.5471  -0.5133   4.4303   5.2021   6.1233

          k = 0.1828 0.4575 0.0000 (  3665 PWs)   bands (ev):

   -18.9844 -15.9694 -13.0316  -6.3545  -1.9781   6.1468   6.6966   7.3771

          k = 0.1828 0.5278 0.0000 (  3634 PWs)   bands (ev):

   -17.9827 -17.0826 -13.1609  -5.6686  -2.7570   7.3059   7.3738   7.9821

          k = 0.2438 0.4223 0.0000 (  3665 PWs)   bands (ev):

   -19.0787 -15.2673 -13.7840  -6.3702  -1.8170   6.0048   6.4524   7.7688

          k = 0.2438 0.4927 0.0000 (  3643 PWs)   bands (ev):

   -17.8840 -16.3601 -14.3401  -5.2355  -3.0084   6.8101   7.7789   9.2223

          k = 0.3047 0.5278 0.0000 (  3681 PWs)   bands (ev):

   -16.8894 -16.8894 -15.0287  -4.1014  -4.1014   6.5955   9.1433   9.1433

     the Fermi energy is    -4.1014 ev

!    total energy              =     -22.76176607 Ry
     estimated scf accuracy    <          1.7E-12 Ry
     smearing contrib. (-TS)   =      -0.00005015 Ry
     internal energy E=F+TS    =     -22.76171592 Ry

     The total energy is F=E-TS. E is the sum of the following terms:
     one-electron contribution =    -399.95941489 Ry
     hartree contribution      =     200.63311344 Ry
     xc contribution           =      -7.08052986 Ry
     ewald contribution        =     183.64511539 Ry

     convergence has been achieved in   8 iterations

     Forces acting on atoms (cartesian axes, Ry/au):

     atom    1 type  1   force =     0.00000000    0.00000000    0.00000000
     atom    2 type  1   force =     0.00000000    0.00000000    0.00000000

     Total force =     0.000000     Total SCF correction =     0.000000


     Computing stress (Cartesian axis) and pressure

          total   stress  (Ry/bohr**3)                   (kbar)     P=       -7.14
   0.00000001   0.00000000   0.00000000            0.00        0.00        0.00
   0.00000000   0.00000001   0.00000000            0.00        0.00        0.00
   0.00000000   0.00000000  -0.00014558            0.00        0.00      -21.41

     Energy error            =      2.4E-08
     Gradient error          =      0.0E+00
     Cell gradient error     =      6.5E-09


     bfgs converged in   6 scf cycles and   5 bfgs steps
     (criteria: energy <  1.0E-04 Ry, force <  1.0E-08Ry/Bohr, cell <  1.0E-03kbar)

     End of BFGS Geometry Optimization

     Final enthalpy =     -22.7617660705 Ry

     File ./work/LiC419.bfgs deleted, as requested
Begin final coordinates
     new unit-cell volume =    736.69219 a.u.^3 (   109.16652 Ang^3 )
     density =      0.36539 g/cm^3

CELL_PARAMETERS (alat=  4.19000000)
   1.093795623  -0.000000000   0.000000000
  -0.546897812   0.947254796   0.000000000
   0.000000000   0.000000000   9.665871122

ATOMIC_POSITIONS (crystal)
C             0.3333333333        0.6666666667        0.5000000000
C             0.6666666667        0.3333333333        0.5000000000
End final coordinates



     Writing output data file ./work/LiC419.save/

     Final scf calculation at the relaxed structure.
     The G-vectors are recalculated for the final unit cell
     Results may differ from those at the preceding step.
 
     Parallelization info
     --------------------
     sticks:   dense  smooth     PW     G-vecs:    dense   smooth      PW
     Min           9       9      2                 1095     1095     168
     Max          10      10      3                 1114     1114     213
     Sum         295     295     91                35253    35253    6289
 


     bravais-lattice index     =            4
     lattice parameter (alat)  =       4.1900  a.u.
     unit-cell volume          =     736.6922 (a.u.)^3
     number of atoms/cell      =            2
     number of atomic types    =            1
     number of electrons       =         8.00
     number of Kohn-Sham states=            8
     kinetic-energy cutoff     =      50.0000  Ry
     charge density cutoff     =     200.0000  Ry
     scf convergence threshold =      1.0E-10
     mixing beta               =       0.7000
     number of iterations used =            8  plain     mixing
     press convergence thresh. =      1.0E-03
     Exchange-correlation= PBE
                           (   1   4   3   4   0   0   0)

     celldm(1)=   4.190000  celldm(2)=   0.000000  celldm(3)=   9.665871
     celldm(4)=   0.000000  celldm(5)=   0.000000  celldm(6)=   0.000000

     crystal axes: (cart. coord. in units of alat)
               a(1) = (   1.093796  -0.000000   0.000000 )  
               a(2) = (  -0.546898   0.947255   0.000000 )  
               a(3) = (   0.000000   0.000000   9.665871 )  

     reciprocal axes: (cart. coord. in units 2 pi/alat)
               b(1) = (  0.914248  0.527841  0.000000 )  
               b(2) = (  0.000000  1.055682  0.000000 )  
               b(3) = (  0.000000  0.000000  0.103457 )  


     PseudoPot. # 1 for C  read from file:
     /home/yhkim/qe-6.7/pseudo/ONCV1/1.2/C_ONCV_PBE-1.2.upf
     MD5 check sum: 1a5f83a7b1f58d24996abe00ed223ac6
     Pseudo is Norm-conserving, Zval =  4.0
     Generated using ONCVPSP code by D. R. Hamann
     Using radial grid of  602 points,  4 beta functions with: 
                l(1) =   0
                l(2) =   0
                l(3) =   1
                l(4) =   1

     atomic species   valence    mass     pseudopotential
        C              4.00    12.01070     C ( 1.00)

     24 Sym. Ops., with inversion, found



   Cartesian axes

     site n.     atom                  positions (alat units)
         1           C   tau(   1) = (  -0.0000000   0.6315032   4.8329356  )
         2           C   tau(   2) = (   0.5468978   0.3157516   4.8329356  )

     number of k points=    27  Methfessel-Paxton smearing, width (Ry)=  0.0100
                       cart. coord. in units 2pi/alat
        k(    1) = (   0.0000000   0.0000000   0.0000000), wk =   0.0088889
        k(    2) = (   0.0000000   0.0703788   0.0000000), wk =   0.0533333
        k(    3) = (   0.0000000   0.1407576   0.0000000), wk =   0.0533333
        k(    4) = (   0.0000000   0.2111364   0.0000000), wk =   0.0533333
        k(    5) = (   0.0000000   0.2815152   0.0000000), wk =   0.0533333
        k(    6) = (   0.0000000   0.3518941   0.0000000), wk =   0.0533333
        k(    7) = (   0.0000000   0.4222729   0.0000000), wk =   0.0533333
        k(    8) = (   0.0000000   0.4926517   0.0000000), wk =   0.0533333
        k(    9) = (   0.0609498   0.1055682   0.0000000), wk =   0.0533333
        k(   10) = (   0.0609498   0.1759470   0.0000000), wk =   0.1066667
        k(   11) = (   0.0609498   0.2463258   0.0000000), wk =   0.1066667
        k(   12) = (   0.0609498   0.3167047   0.0000000), wk =   0.1066667
        k(   13) = (   0.0609498   0.3870835   0.0000000), wk =   0.1066667
        k(   14) = (   0.0609498   0.4574623   0.0000000), wk =   0.1066667
        k(   15) = (   0.0609498   0.5278411   0.0000000), wk =   0.0533333
        k(   16) = (   0.1218997   0.2111364   0.0000000), wk =   0.0533333
        k(   17) = (   0.1218997   0.2815152   0.0000000), wk =   0.1066667
        k(   18) = (   0.1218997   0.3518941   0.0000000), wk =   0.1066667
        k(   19) = (   0.1218997   0.4222729   0.0000000), wk =   0.1066667
        k(   20) = (   0.1218997   0.4926517   0.0000000), wk =   0.1066667
        k(   21) = (   0.1828495   0.3167047   0.0000000), wk =   0.0533333
        k(   22) = (   0.1828495   0.3870835   0.0000000), wk =   0.1066667
        k(   23) = (   0.1828495   0.4574623   0.0000000), wk =   0.1066667
        k(   24) = (   0.1828495   0.5278411   0.0000000), wk =   0.0533333
        k(   25) = (   0.2437994   0.4222729   0.0000000), wk =   0.0533333
        k(   26) = (   0.2437994   0.4926517   0.0000000), wk =   0.1066667
        k(   27) = (   0.3047492   0.5278411   0.0000000), wk =   0.0177778

     Dense  grid:    35253 G-vectors     FFT dimensions: (  24,  24, 192)

     Estimated max dynamical RAM per process >       1.93 MB

     Estimated total dynamical RAM >      61.84 MB
 ----2D----2D----2D----2D----2D----2D----2D----2D----2D----2D----2D----2D
  The code is running with the 2D cutoff
  Please refer to:
  Sohier, T., Calandra, M., & Mauri, F. (2017), 
  Density functional perturbation theory for gated two-dimensional heterostructu
 res:
  Theoretical developments and application to flexural phonons in graphene.
  Physical Review B, 96(7), 75448. https://doi.org/10.1103/PhysRevB.96.075448
 ----2D----2D----2D----2D----2D----2D----2D----2D----2D----2D----2D----2D

     Initial potential from superposition of free atoms

     starting charge    7.98607, renormalised to    8.00000

     negative rho (up, down):  1.109E-04 0.000E+00
     Starting wfcs are random

     total cpu time spent up to now is       20.8 secs

     Self-consistent Calculation

     iteration #  1     ecut=    50.00 Ry     beta= 0.70
     Davidson diagonalization with overlap
     c_bands:  5 eigenvalues not converged
     c_bands:  2 eigenvalues not converged
     c_bands:  3 eigenvalues not converged
     c_bands:  5 eigenvalues not converged
     c_bands:  4 eigenvalues not converged
     c_bands:  4 eigenvalues not converged
     c_bands:  3 eigenvalues not converged
     c_bands:  2 eigenvalues not converged
     c_bands:  2 eigenvalues not converged
     c_bands:  5 eigenvalues not converged
     c_bands:  4 eigenvalues not converged
     c_bands:  4 eigenvalues not converged
     c_bands:  4 eigenvalues not converged
     c_bands:  2 eigenvalues not converged
     c_bands:  2 eigenvalues not converged
     c_bands:  4 eigenvalues not converged
     c_bands:  4 eigenvalues not converged
     c_bands:  4 eigenvalues not converged
     c_bands:  3 eigenvalues not converged
     c_bands:  2 eigenvalues not converged
     c_bands:  4 eigenvalues not converged
     c_bands:  3 eigenvalues not converged
     c_bands:  3 eigenvalues not converged
     c_bands:  3 eigenvalues not converged
     c_bands:  3 eigenvalues not converged
     c_bands:  3 eigenvalues not converged
     c_bands:  3 eigenvalues not converged
     ethr =  1.00E-06,  avg # of iterations = 22.2

     negative rho (up, down):  2.213E-05 0.000E+00

     total cpu time spent up to now is       21.6 secs

     total energy              =     -22.75420186 Ry
     estimated scf accuracy    <       0.21854543 Ry

     iteration #  2     ecut=    50.00 Ry     beta= 0.70
     Davidson diagonalization with overlap
     ethr =  2.73E-03,  avg # of iterations =  2.3

     negative rho (up, down):  2.879E-06 0.000E+00

     total cpu time spent up to now is       21.7 secs

     total energy              =     -22.78747372 Ry
     estimated scf accuracy    <       0.00240741 Ry

     iteration #  3     ecut=    50.00 Ry     beta= 0.70
     Davidson diagonalization with overlap
     ethr =  3.01E-05,  avg # of iterations =  8.8

     total cpu time spent up to now is       21.9 secs

     total energy              =     -22.78790354 Ry
     estimated scf accuracy    <       0.00017687 Ry

     iteration #  4     ecut=    50.00 Ry     beta= 0.70
     Davidson diagonalization with overlap
     ethr =  2.21E-06,  avg # of iterations =  5.3

     total cpu time spent up to now is       22.0 secs

     total energy              =     -22.78791810 Ry
     estimated scf accuracy    <       0.00000128 Ry

     iteration #  5     ecut=    50.00 Ry     beta= 0.70
     Davidson diagonalization with overlap
     ethr =  1.60E-08,  avg # of iterations =  3.7

     total cpu time spent up to now is       22.2 secs

     total energy              =     -22.78791960 Ry
     estimated scf accuracy    <       0.00000004 Ry

     iteration #  6     ecut=    50.00 Ry     beta= 0.70
     Davidson diagonalization with overlap
     ethr =  5.26E-10,  avg # of iterations =  2.5

     total cpu time spent up to now is       22.3 secs

     total energy              =     -22.78791961 Ry
     estimated scf accuracy    <          1.1E-09 Ry

     iteration #  7     ecut=    50.00 Ry     beta= 0.70
     Davidson diagonalization with overlap
     ethr =  1.37E-11,  avg # of iterations =  2.9

     total cpu time spent up to now is       22.4 secs

     End of self-consistent calculation

          k = 0.0000 0.0000 0.0000 (  4351 PWs)   bands (ev):

   -24.0460 -12.0670  -7.1560  -7.1560  -0.9898  -0.2046   0.5808   0.9362

          k = 0.0000 0.0704 0.0000 (  4377 PWs)   bands (ev):

   -23.9380 -11.9369  -7.5896  -7.3925  -0.8425  -0.0551   0.7312   1.0861

          k = 0.0000 0.1408 0.0000 (  4339 PWs)   bands (ev):

   -23.6146 -11.5460  -8.7337  -7.9821  -0.4006   0.3932   1.1825   1.5355

          k = 0.0000 0.2111 0.0000 (  4369 PWs)   bands (ev):

   -23.0786 -10.9030 -10.3222  -8.7218   0.3353   1.1379   1.9346   2.2824

          k = 0.0000 0.2815 0.0000 (  4397 PWs)   bands (ev):

   -22.3339 -12.1016 -10.0232  -9.4392   1.3633   2.1538   2.9861   2.9970

          k = 0.0000 0.3519 0.0000 (  4425 PWs)   bands (ev):

   -21.3873 -13.9156 -10.0388  -8.9414   1.0209   2.6765   3.5436   4.0683

          k = 0.0000 0.4223 0.0000 (  4421 PWs)   bands (ev):

   -20.2528 -15.6653 -10.4578  -7.7434  -0.8221   3.8460   4.3370   5.1638

          k = 0.0000 0.4927 0.0000 (  4411 PWs)   bands (ev):

   -18.9919 -17.2429 -10.6751  -6.7355  -2.1720   3.7791   6.1791   7.0605

          k = 0.0609 0.1056 0.0000 (  4349 PWs)   bands (ev):

   -23.7222 -11.6758  -8.3228  -7.8595  -0.5478   0.2439   1.0322   1.3858

          k = 0.0609 0.1759 0.0000 (  4359 PWs)   bands (ev):

   -23.2926 -11.1592  -9.5978  -8.6175   0.0414   0.8407   1.6340   1.9843

          k = 0.0609 0.2463 0.0000 (  4387 PWs)   bands (ev):

   -22.6523 -11.2210 -10.3967  -9.4086   0.9241   1.7305   2.5366   2.8750

          k = 0.0609 0.3167 0.0000 (  4414 PWs)   bands (ev):

   -21.8069 -12.9869 -10.0958  -9.4112   1.9058   2.0971   2.9543   3.7371

          k = 0.0609 0.3871 0.0000 (  4415 PWs)   bands (ev):

   -20.7655 -14.7545 -10.6178  -8.2540   0.0276   3.5478   4.4177   4.4633

          k = 0.0609 0.4575 0.0000 (  4419 PWs)   bands (ev):

   -19.5534 -16.4262 -10.9422  -7.0822  -1.6250   4.2871   5.3233   6.1712

          k = 0.0609 0.5278 0.0000 (  4408 PWs)   bands (ev):

   -18.5113 -17.6246 -11.0523  -6.4606  -2.4122   4.2446   7.2347   7.3877

          k = 0.1219 0.2111 0.0000 (  4383 PWs)   bands (ev):

   -22.7590 -10.7154 -10.5217  -9.6252   0.7779   1.5848   2.3868   2.7312

          k = 0.1219 0.2815 0.0000 (  4396 PWs)   bands (ev):

   -22.0178 -12.1442 -10.5646  -9.6501   1.8066   2.4800   2.6531   3.4398

          k = 0.1219 0.3519 0.0000 (  4405 PWs)   bands (ev):

   -21.0771 -13.7836 -11.2579  -8.5735   0.7404   3.1230   3.9525   4.7909

          k = 0.1219 0.4223 0.0000 (  4421 PWs)   bands (ev):

   -19.9523 -15.4470 -11.7154  -7.3766  -0.9772   4.7133   5.5448   5.6597

          k = 0.1219 0.4927 0.0000 (  4404 PWs)   bands (ev):

   -18.7079 -16.9783 -11.9435  -6.3464  -2.2852   5.5385   6.5954   7.3041

          k = 0.1828 0.3167 0.0000 (  4397 PWs)   bands (ev):

   -21.1814 -13.1650 -11.7906  -8.6828   1.0356   2.9785   3.7898   4.6430

          k = 0.1828 0.3871 0.0000 (  4413 PWs)   bands (ev):

   -20.1556 -14.4882 -12.6335  -7.5399  -0.5173   4.4315   5.2088   6.1436

          k = 0.1828 0.4575 0.0000 (  4410 PWs)   bands (ev):

   -18.9694 -15.9724 -13.0631  -6.3478  -1.9784   6.1443   6.7006   7.3542

          k = 0.1828 0.5278 0.0000 (  4411 PWs)   bands (ev):

   -17.9654 -17.0927 -13.1959  -5.6651  -2.7569   7.2803   7.3770   7.9738

          k = 0.2438 0.4223 0.0000 (  4409 PWs)   bands (ev):

   -19.0636 -15.2627 -13.8221  -6.3631  -1.8187   6.0033   6.4568   7.7835

          k = 0.2438 0.4927 0.0000 (  4394 PWs)   bands (ev):

   -17.8740 -16.3581 -14.3768  -5.2310  -3.0077   6.8161   7.7695   9.0141

          k = 0.3047 0.5278 0.0000 (  4395 PWs)   bands (ev):

   -16.8770 -16.8770 -15.0676  -4.0975  -4.0975   6.6029   9.1145   9.1145

     the Fermi energy is    -4.0975 ev

!    total energy              =     -22.78791961 Ry
     estimated scf accuracy    <          1.1E-11 Ry
     smearing contrib. (-TS)   =      -0.00005015 Ry
     internal energy E=F+TS    =     -22.78786946 Ry

     The total energy is F=E-TS. E is the sum of the following terms:
     one-electron contribution =    -400.00764885 Ry
     hartree contribution      =     200.65670538 Ry
     xc contribution           =      -7.08204172 Ry
     ewald contribution        =     183.64511574 Ry

     convergence has been achieved in   7 iterations

     Forces acting on atoms (cartesian axes, Ry/au):

     atom    1 type  1   force =     0.00000000    0.00000000    0.00000000
     atom    2 type  1   force =     0.00000000    0.00000000    0.00000000

     Total force =     0.000000     Total SCF correction =     0.000000


     Computing stress (Cartesian axis) and pressure

          total   stress  (Ry/bohr**3)                   (kbar)     P=        6.20
   0.00011949   0.00000000   0.00000000           17.58        0.00        0.00
   0.00000000   0.00011949   0.00000000            0.00       17.58        0.00
   0.00000000   0.00000000  -0.00011251            0.00        0.00      -16.55


     Writing output data file ./work/LiC419.save/
 
     init_run     :      0.14s CPU      0.16s WALL (       2 calls)
     electrons    :     20.37s CPU     21.96s WALL (       7 calls)
     update_pot   :      0.05s CPU      0.05s WALL (       5 calls)
     forces       :      0.05s CPU      0.05s WALL (       7 calls)
     stress       :      0.14s CPU      0.14s WALL (       7 calls)

     Called by init_run:
     wfcinit      :      0.10s CPU      0.11s WALL (       2 calls)
     potinit      :      0.02s CPU      0.02s WALL (       2 calls)
     hinit0       :      0.01s CPU      0.01s WALL (       2 calls)

     Called by electrons:
     c_bands      :     18.19s CPU     19.49s WALL (     108 calls)
     sum_band     :      1.94s CPU      2.07s WALL (     108 calls)
     v_of_rho     :      0.18s CPU      0.20s WALL (     114 calls)
     mix_rho      :      0.04s CPU      0.04s WALL (     108 calls)

     Called by c_bands:
     init_us_2    :      0.10s CPU      0.11s WALL (    6264 calls)
     cegterg      :     17.89s CPU     19.14s WALL (    2980 calls)

     Called by *egterg:
     cdiaghg      :      1.63s CPU      1.73s WALL (   17758 calls)
     h_psi        :     15.11s CPU     16.19s WALL (   17982 calls)
     g_psi        :      0.04s CPU      0.04s WALL (   14948 calls)

     Called by h_psi:
     h_psi:calbec :      0.48s CPU      0.51s WALL (   17982 calls)
     vloc_psi     :     14.35s CPU     15.37s WALL (   17982 calls)
     add_vuspsi   :      0.14s CPU      0.15s WALL (   17982 calls)

     General routines
     calbec       :      0.48s CPU      0.51s WALL (   18927 calls)
     fft          :      0.16s CPU      0.17s WALL (    1195 calls)
     ffts         :      0.01s CPU      0.01s WALL (     108 calls)
     fftw         :     15.42s CPU     16.51s WALL (  215700 calls)
 
     Parallel routines
     fft_scatt_xy :      0.81s CPU      0.86s WALL (  217003 calls)
     fft_scatt_yz :      6.46s CPU      6.92s WALL (  217003 calls)
 
     PWSCF        :     20.81s CPU     22.70s WALL

 
   This run was terminated on:  14: 4:48  19Jan2024            

=------------------------------------------------------------------------------=
   JOB DONE.
=------------------------------------------------------------------------------=
