
     Program PWSCF v.6.7MaX starts on 19Jan2024 at 14:17:36 

     This program is part of the open-source Quantum ESPRESSO suite
     for quantum simulation of materials; please cite
         "P. Giannozzi et al., J. Phys.:Condens. Matter 21 395502 (2009);
         "P. Giannozzi et al., J. Phys.:Condens. Matter 29 465901 (2017);
          URL http://www.quantum-espresso.org", 
     in publications or presentations arising from this work. More details at
     http://www.quantum-espresso.org/quote

     Parallel version (MPI), running on    32 processors

     MPI processes distributed on     1 nodes
     R & G space division:  proc/nbgrp/npool/nimage =      32
     Waiting for input...
     Reading input from standard input

     Current dimensions of program PWSCF are:
     Max number of different atomic species (ntypx) = 10
     Max number of k-points (npk) =  40000
     Max angular momentum in pseudopotentials (lmaxx) =  3
     Message from routine read_pp_mesh:
     mesh size missing, using the one in header

     Subspace diagonalization in iterative solution of the eigenvalue problem:
     a serial algorithm will be used

 
     Parallelization info
     --------------------
     sticks:   dense  smooth     PW     G-vecs:    dense   smooth      PW
     Min           9       9      3                 1185     1185     202
     Max          10      10      6                 1240     1240     225
     Sum         313     313    109                39111    39111    6871
 


     bravais-lattice index     =            4
     lattice parameter (alat)  =       4.8400  a.u.
     unit-cell volume          =     821.6302 (a.u.)^3
     number of atoms/cell      =            2
     number of atomic types    =            1
     number of electrons       =         8.00
     number of Kohn-Sham states=            8
     kinetic-energy cutoff     =      50.0000  Ry
     charge density cutoff     =     200.0000  Ry
     scf convergence threshold =      1.0E-08
     mixing beta               =       0.7000
     number of iterations used =            8  plain     mixing
     energy convergence thresh.=      1.0E-04
     force convergence thresh. =      1.0E-08
     press convergence thresh. =      1.0E-03
     Exchange-correlation= PBE
                           (   1   4   3   4   0   0   0)
     nstep                     =           50


     celldm(1)=   4.840000  celldm(2)=   0.000000  celldm(3)=   8.367769
     celldm(4)=   0.000000  celldm(5)=   0.000000  celldm(6)=   0.000000

     crystal axes: (cart. coord. in units of alat)
               a(1) = (   1.000000   0.000000   0.000000 )  
               a(2) = (  -0.500000   0.866025   0.000000 )  
               a(3) = (   0.000000   0.000000   8.367769 )  

     reciprocal axes: (cart. coord. in units 2 pi/alat)
               b(1) = (  1.000000  0.577350  0.000000 )  
               b(2) = (  0.000000  1.154701  0.000000 )  
               b(3) = (  0.000000  0.000000  0.119506 )  


     PseudoPot. # 1 for C  read from file:
     /home/yhkim/qe-6.7/pseudo/ONCV1/1.2/C_ONCV_PBE-1.2.upf
     MD5 check sum: 1a5f83a7b1f58d24996abe00ed223ac6
     Pseudo is Norm-conserving, Zval =  4.0
     Generated using ONCVPSP code by D. R. Hamann
     Using radial grid of  602 points,  4 beta functions with: 
                l(1) =   0
                l(2) =   0
                l(3) =   1
                l(4) =   1

     atomic species   valence    mass     pseudopotential
        C              4.00    12.01070     C ( 1.00)

     24 Sym. Ops., with inversion, found



   Cartesian axes

     site n.     atom                  positions (alat units)
         1           C   tau(   1) = (  -0.0000000   0.5773503   4.1838843  )
         2           C   tau(   2) = (   0.5000000   0.2886751   4.1838843  )

     number of k points=    27  Methfessel-Paxton smearing, width (Ry)=  0.0100
                       cart. coord. in units 2pi/alat
        k(    1) = (   0.0000000   0.0000000   0.0000000), wk =   0.0088889
        k(    2) = (   0.0000000   0.0769800   0.0000000), wk =   0.0533333
        k(    3) = (   0.0000000   0.1539601   0.0000000), wk =   0.0533333
        k(    4) = (   0.0000000   0.2309401   0.0000000), wk =   0.0533333
        k(    5) = (   0.0000000   0.3079201   0.0000000), wk =   0.0533333
        k(    6) = (   0.0000000   0.3849002   0.0000000), wk =   0.0533333
        k(    7) = (   0.0000000   0.4618802   0.0000000), wk =   0.0533333
        k(    8) = (   0.0000000   0.5388603   0.0000000), wk =   0.0533333
        k(    9) = (   0.0666667   0.1154701   0.0000000), wk =   0.0533333
        k(   10) = (   0.0666667   0.1924501   0.0000000), wk =   0.1066667
        k(   11) = (   0.0666667   0.2694301   0.0000000), wk =   0.1066667
        k(   12) = (   0.0666667   0.3464102   0.0000000), wk =   0.1066667
        k(   13) = (   0.0666667   0.4233902   0.0000000), wk =   0.1066667
        k(   14) = (   0.0666667   0.5003702   0.0000000), wk =   0.1066667
        k(   15) = (   0.0666667   0.5773503   0.0000000), wk =   0.0533333
        k(   16) = (   0.1333333   0.2309401   0.0000000), wk =   0.0533333
        k(   17) = (   0.1333333   0.3079201   0.0000000), wk =   0.1066667
        k(   18) = (   0.1333333   0.3849002   0.0000000), wk =   0.1066667
        k(   19) = (   0.1333333   0.4618802   0.0000000), wk =   0.1066667
        k(   20) = (   0.1333333   0.5388603   0.0000000), wk =   0.1066667
        k(   21) = (   0.2000000   0.3464102   0.0000000), wk =   0.0533333
        k(   22) = (   0.2000000   0.4233902   0.0000000), wk =   0.1066667
        k(   23) = (   0.2000000   0.5003702   0.0000000), wk =   0.1066667
        k(   24) = (   0.2000000   0.5773503   0.0000000), wk =   0.0533333
        k(   25) = (   0.2666667   0.4618802   0.0000000), wk =   0.0533333
        k(   26) = (   0.2666667   0.5388603   0.0000000), wk =   0.1066667
        k(   27) = (   0.3333333   0.5773503   0.0000000), wk =   0.0177778

     Dense  grid:    39111 G-vectors     FFT dimensions: (  24,  24, 192)

     Estimated max dynamical RAM per process >       2.05 MB

     Estimated total dynamical RAM >      65.46 MB
 ----2D----2D----2D----2D----2D----2D----2D----2D----2D----2D----2D----2D
  The code is running with the 2D cutoff
  Please refer to:
  Sohier, T., Calandra, M., & Mauri, F. (2017), 
  Density functional perturbation theory for gated two-dimensional heterostructu
 res:
  Theoretical developments and application to flexural phonons in graphene.
  Physical Review B, 96(7), 75448. https://doi.org/10.1103/PhysRevB.96.075448
 ----2D----2D----2D----2D----2D----2D----2D----2D----2D----2D----2D----2D

     Initial potential from superposition of free atoms

     starting charge    7.98607, renormalised to    8.00000

     negative rho (up, down):  1.181E-04 0.000E+00
     Starting wfcs are random

     total cpu time spent up to now is        0.1 secs

     Self-consistent Calculation

     iteration #  1     ecut=    50.00 Ry     beta= 0.70
     Davidson diagonalization with overlap
     ethr =  1.00E-02,  avg # of iterations = 11.9

     negative rho (up, down):  1.367E-07 0.000E+00

     total cpu time spent up to now is        0.6 secs

     total energy              =     -22.75430638 Ry
     estimated scf accuracy    <       0.11630089 Ry

     iteration #  2     ecut=    50.00 Ry     beta= 0.70
     Davidson diagonalization with overlap
     ethr =  1.45E-03,  avg # of iterations =  2.1

     total cpu time spent up to now is        0.7 secs

     total energy              =     -22.77431310 Ry
     estimated scf accuracy    <       0.00205958 Ry

     iteration #  3     ecut=    50.00 Ry     beta= 0.70
     Davidson diagonalization with overlap
     ethr =  2.57E-05,  avg # of iterations =  9.1

     total cpu time spent up to now is        1.0 secs

     total energy              =     -22.77759276 Ry
     estimated scf accuracy    <       0.00013126 Ry

     iteration #  4     ecut=    50.00 Ry     beta= 0.70
     Davidson diagonalization with overlap
     c_bands:  1 eigenvalues not converged
     ethr =  1.64E-06,  avg # of iterations =  6.2

     total cpu time spent up to now is        1.2 secs

     total energy              =     -22.77763236 Ry
     estimated scf accuracy    <       0.00000018 Ry

     iteration #  5     ecut=    50.00 Ry     beta= 0.70
     Davidson diagonalization with overlap
     ethr =  2.28E-09,  avg # of iterations =  4.7

     total cpu time spent up to now is        1.4 secs

     total energy              =     -22.77763505 Ry
     estimated scf accuracy    <       0.00000003 Ry

     iteration #  6     ecut=    50.00 Ry     beta= 0.70
     Davidson diagonalization with overlap
     ethr =  3.24E-10,  avg # of iterations =  2.0

     total cpu time spent up to now is        1.5 secs

     End of self-consistent calculation

          k = 0.0000 0.0000 0.0000 (  4999 PWs)   bands (ev):

   -23.2058 -11.4436  -7.6574  -7.6574  -0.9562  -0.1995   0.5967   0.9502

          k = 0.0000 0.0770 0.0000 (  4991 PWs)   bands (ev):

   -23.1080 -11.3290  -8.0660  -7.8532  -0.8239  -0.0659   0.7317   1.0842

          k = 0.0000 0.1540 0.0000 (  4959 PWs)   bands (ev):

   -22.8150 -10.9875  -9.1450  -8.3542  -0.4270   0.3347   1.1364   1.4860

          k = 0.0000 0.2309 0.0000 (  4933 PWs)   bands (ev):

   -22.3292 -10.6116 -10.4273  -8.9839   0.2338   0.9991   1.8103   2.1514

          k = 0.0000 0.3079 0.0000 (  4923 PWs)   bands (ev):

   -21.6553 -12.2408  -9.6622  -9.6016   1.1556   1.5233   1.9768   2.4075

          k = 0.0000 0.3849 0.0000 (  4920 PWs)   bands (ev):

   -20.8021 -13.8914 -10.1180  -8.7241  -0.0786   2.0747   2.3650   3.1384

          k = 0.0000 0.4619 0.0000 (  4866 PWs)   bands (ev):

   -19.7916 -15.4654 -10.4800  -7.6949  -1.6238   1.8642   3.7849   4.5836

          k = 0.0000 0.5389 0.0000 (  4852 PWs)   bands (ev):

   -18.7353 -16.8119 -10.6682  -6.8456  -2.7494   1.7449   5.4594   6.2600

          k = 0.0667 0.1155 0.0000 (  4975 PWs)   bands (ev):

   -22.9125 -11.1013  -8.7648  -8.2480  -0.5592   0.2012   1.0016   1.3521

          k = 0.0667 0.1925 0.0000 (  4946 PWs)   bands (ev):

   -22.5231 -10.6503  -9.9571  -8.8967  -0.0302   0.7343   1.5411   1.8870

          k = 0.0667 0.2694 0.0000 (  4919 PWs)   bands (ev):

   -21.9431 -11.4487  -9.9858  -9.5793   0.7618   1.5234   2.2360   2.3491

          k = 0.0667 0.3464 0.0000 (  4913 PWs)   bands (ev):

   -21.1792 -13.0578 -10.1791  -9.1304   0.6570   1.8123   2.6045   2.6902

          k = 0.0667 0.4234 0.0000 (  4886 PWs)   bands (ev):

   -20.2446 -14.6561 -10.6358  -8.1311  -0.9251   2.4062   3.1367   3.9190

          k = 0.0667 0.5004 0.0000 (  4864 PWs)   bands (ev):

   -19.1824 -16.1380 -10.9200  -7.1319  -2.3071   2.2344   4.6889   5.4734

          k = 0.0667 0.5774 0.0000 (  4856 PWs)   bands (ev):

   -18.3975 -17.0656 -11.0162  -6.6134  -2.9613   2.1741   6.3827   6.5503

          k = 0.1333 0.2309 0.0000 (  4941 PWs)   bands (ev):

   -22.0395 -11.0209 -10.0950  -9.7547   0.6304   1.3986   2.2158   2.4855

          k = 0.1333 0.3079 0.0000 (  4919 PWs)   bands (ev):

   -21.3690 -12.3377 -10.5798  -9.3357   1.1171   1.5528   2.3259   3.1588

          k = 0.1333 0.3849 0.0000 (  4893 PWs)   bands (ev):

   -20.5217 -13.8146 -11.2059  -8.4045  -0.3593   2.7309   3.5052   3.7331

          k = 0.1333 0.4619 0.0000 (  4890 PWs)   bands (ev):

   -19.5197 -15.2999 -11.6223  -7.3756  -1.8014   3.4950   4.1742   4.9144

          k = 0.1333 0.5389 0.0000 (  4881 PWs)   bands (ev):

   -18.4735 -16.6039 -11.8298  -6.5051  -2.8942   3.3781   5.8232   6.4354

          k = 0.2000 0.3464 0.0000 (  4919 PWs)   bands (ev):

   -20.6147 -13.3300 -11.6265  -8.4975  -0.1352   2.6022   3.3622   4.2366

          k = 0.2000 0.4234 0.0000 (  4903 PWs)   bands (ev):

   -19.6952 -14.5251 -12.3860  -7.5116  -1.4527   3.9007   4.6162   5.2487

          k = 0.2000 0.5004 0.0000 (  4898 PWs)   bands (ev):

   -18.6541 -15.8139 -12.8001  -6.4934  -2.6880   5.0422   5.4524   5.9090

          k = 0.2000 0.5774 0.0000 (  4892 PWs)   bands (ev):

   -17.8779 -16.6860 -12.9310  -5.9178  -3.3392   4.9880   6.4874   6.9777

          k = 0.2667 0.4619 0.0000 (  4897 PWs)   bands (ev):

   -18.7260 -15.3132 -13.3656  -6.5003  -2.5796   5.2960   5.7033   6.7299

          k = 0.2667 0.5389 0.0000 (  4899 PWs)   bands (ev):

   -17.7104 -16.2572 -13.8612  -5.5331  -3.5994   6.0566   6.6103   6.8878

          k = 0.3333 0.5774 0.0000 (  4878 PWs)   bands (ev):

   -16.8442 -16.8442 -14.3365  -4.5527  -4.5527   5.9053   7.4421   7.4422

     the Fermi energy is    -4.5527 ev

!    total energy              =     -22.77763506 Ry
     estimated scf accuracy    <          6.3E-10 Ry
     smearing contrib. (-TS)   =      -0.00005015 Ry
     internal energy E=F+TS    =     -22.77758491 Ry

     The total energy is F=E-TS. E is the sum of the following terms:
     one-electron contribution =    -358.22862175 Ry
     hartree contribution      =     179.66283928 Ry
     xc contribution           =      -6.85156675 Ry
     ewald contribution        =     162.63976431 Ry

     convergence has been achieved in   6 iterations

     Forces acting on atoms (cartesian axes, Ry/au):

     atom    1 type  1   force =     0.00000000    0.00000000    0.00000000
     atom    2 type  1   force =    -0.00000000   -0.00000000    0.00000000

     Total force =     0.000000     Total SCF correction =     0.000000


     Computing stress (Cartesian axis) and pressure

          total   stress  (Ry/bohr**3)                   (kbar)     P=      -54.88
  -0.00051142   0.00000000   0.00000000          -75.23        0.00        0.00
   0.00000000  -0.00051142  -0.00000000            0.00      -75.23       -0.00
  -0.00000000   0.00000000  -0.00009630           -0.00        0.00      -14.17


     BFGS Geometry Optimization
     Energy error            =      0.0E+00
     Gradient error          =      1.7E-26
     Cell gradient error     =      5.1E-04


     number of scf cycles    =   1
     number of bfgs steps    =   0

     enthalpy new            =     -22.7776350560 Ry

     new trust radius        =       0.0732976113 bohr
     new conv_thr            =       0.0000000100 Ry

     new unit-cell volume =    800.75439 a.u.^3 (   118.65956 Ang^3 )
     density =      0.33616 g/cm^3

CELL_PARAMETERS (alat=  4.84000000)
   0.987214384   0.000000000   0.000000000
  -0.493607192   0.854952736   0.000000000
   0.000000000   0.000000000   8.367768595

ATOMIC_POSITIONS (crystal)
C             0.3333333333        0.6666666667        0.5000000000
C             0.6666666667        0.3333333333        0.5000000000



     Writing output data file ./work/LiC484.save/
     NEW-OLD atomic charge density approx. for the potential

     negative rho (up, down):  5.364E-06 0.000E+00
     extrapolated charge    7.79180, renormalised to    8.00000

     total cpu time spent up to now is        1.6 secs

     Self-consistent Calculation

     iteration #  1     ecut=    50.00 Ry     beta= 0.70
     Davidson diagonalization with overlap
     c_bands:  1 eigenvalues not converged
     c_bands:  3 eigenvalues not converged
     c_bands:  1 eigenvalues not converged
     c_bands:  1 eigenvalues not converged
     c_bands:  3 eigenvalues not converged
     c_bands:  1 eigenvalues not converged
     c_bands:  3 eigenvalues not converged
     c_bands:  1 eigenvalues not converged
     c_bands:  1 eigenvalues not converged
     c_bands:  1 eigenvalues not converged
     c_bands:  2 eigenvalues not converged
     c_bands:  1 eigenvalues not converged
     c_bands:  1 eigenvalues not converged
     ethr =  1.00E-06,  avg # of iterations = 17.3

     negative rho (up, down):  3.868E-07 0.000E+00

     total cpu time spent up to now is        2.1 secs

     total energy              =     -22.76825253 Ry
     estimated scf accuracy    <       0.00997292 Ry

     iteration #  2     ecut=    50.00 Ry     beta= 0.70
     Davidson diagonalization with overlap
     ethr =  1.25E-04,  avg # of iterations = 10.3

     negative rho (up, down):  7.793E-08 0.000E+00

     total cpu time spent up to now is        2.3 secs

     total energy              =     -22.78745179 Ry
     estimated scf accuracy    <       0.00898932 Ry

     iteration #  3     ecut=    50.00 Ry     beta= 0.70
     Davidson diagonalization with overlap
     ethr =  1.12E-04,  avg # of iterations =  1.0

     total cpu time spent up to now is        2.4 secs

     total energy              =     -22.78670774 Ry
     estimated scf accuracy    <       0.00197307 Ry

     iteration #  4     ecut=    50.00 Ry     beta= 0.70
     Davidson diagonalization with overlap
     ethr =  2.47E-05,  avg # of iterations =  3.5

     total cpu time spent up to now is        2.6 secs

     total energy              =     -22.78697497 Ry
     estimated scf accuracy    <       0.00003218 Ry

     iteration #  5     ecut=    50.00 Ry     beta= 0.70
     Davidson diagonalization with overlap
     c_bands:  1 eigenvalues not converged
     ethr =  4.02E-07,  avg # of iterations =  6.0

     total cpu time spent up to now is        2.8 secs

     total energy              =     -22.78698408 Ry
     estimated scf accuracy    <       0.00001860 Ry

     iteration #  6     ecut=    50.00 Ry     beta= 0.70
     Davidson diagonalization with overlap
     ethr =  2.33E-07,  avg # of iterations =  1.0

     total cpu time spent up to now is        2.9 secs

     total energy              =     -22.78697386 Ry
     estimated scf accuracy    <       0.00002341 Ry

     iteration #  7     ecut=    50.00 Ry     beta= 0.70
     Davidson diagonalization with overlap
     ethr =  2.33E-07,  avg # of iterations =  2.7

     total cpu time spent up to now is        3.0 secs

     total energy              =     -22.78697440 Ry
     estimated scf accuracy    <       0.00001084 Ry

     iteration #  8     ecut=    50.00 Ry     beta= 0.70
     Davidson diagonalization with overlap
     ethr =  1.35E-07,  avg # of iterations =  1.0

     total cpu time spent up to now is        3.1 secs

     total energy              =     -22.78697410 Ry
     estimated scf accuracy    <       0.00000394 Ry

     iteration #  9     ecut=    50.00 Ry     beta= 0.70
     Davidson diagonalization with overlap
     ethr =  4.92E-08,  avg # of iterations =  1.0

     total cpu time spent up to now is        3.2 secs

     total energy              =     -22.78697424 Ry
     estimated scf accuracy    <       0.00000031 Ry

     iteration # 10     ecut=    50.00 Ry     beta= 0.70
     Davidson diagonalization with overlap
     ethr =  3.87E-09,  avg # of iterations =  1.9

     total cpu time spent up to now is        3.4 secs

     total energy              =     -22.78697428 Ry
     estimated scf accuracy    <       0.00000005 Ry

     iteration # 11     ecut=    50.00 Ry     beta= 0.70
     Davidson diagonalization with overlap
     ethr =  5.83E-10,  avg # of iterations =  2.3

     total cpu time spent up to now is        3.5 secs

     End of self-consistent calculation

          k = 0.0000 0.0000 0.0000 (  4999 PWs)   bands (ev):

   -23.4011 -11.5855  -7.5574  -7.5574  -0.9640  -0.1996   0.5956   0.9491

          k =-0.0000 0.0780 0.0000 (  4991 PWs)   bands (ev):

   -23.3009 -11.4673  -7.9701  -7.7615  -0.8283  -0.0623   0.7340   1.0867

          k =-0.0000 0.1560 0.0000 (  4959 PWs)   bands (ev):

   -23.0009 -11.1147  -9.0630  -8.2826  -0.4212   0.3490   1.1493   1.4992

          k =-0.0000 0.2339 0.0000 (  4933 PWs)   bands (ev):

   -22.5035 -10.5542 -10.5360  -8.9361   0.2565   1.0317   1.8409   2.1836

          k =-0.0000 0.3119 0.0000 (  4923 PWs)   bands (ev):

   -21.8132 -12.2155  -9.7451  -9.5762   1.2023   1.7911   2.0886   2.7761

          k =-0.0000 0.3899 0.0000 (  4920 PWs)   bands (ev):

   -20.9383 -13.9024 -10.1105  -8.7744   0.1696   2.3740   2.5941   3.2308

          k =-0.0000 0.4679 0.0000 (  4866 PWs)   bands (ev):

   -19.8986 -15.5166 -10.4851  -7.7072  -1.4423   2.3200   3.9029   4.7160

          k =-0.0000 0.5458 0.0000 (  4852 PWs)   bands (ev):

   -18.7953 -16.9161 -10.6796  -6.8228  -2.6180   2.2052   5.6214   6.4425

          k = 0.0675 0.1170 0.0000 (  4975 PWs)   bands (ev):

   -23.1008 -11.2321  -8.6758  -8.1725  -0.5569   0.2120   1.0109   1.3618

          k = 0.0675 0.1949 0.0000 (  4946 PWs)   bands (ev):

   -22.7021 -10.7664  -9.8848  -8.8458  -0.0143   0.7595   1.5646   1.9111

          k = 0.0675 0.2729 0.0000 (  4919 PWs)   bands (ev):

   -22.1081 -11.4038 -10.0797  -9.5518   0.7983   1.5725   2.3942   2.5711

          k = 0.0675 0.3509 0.0000 (  4913 PWs)   bands (ev):

   -21.3252 -13.0473 -10.1710  -9.1951   0.9398   1.8765   2.6830   3.1370

          k = 0.0675 0.4289 0.0000 (  4886 PWs)   bands (ev):

   -20.3657 -14.6837 -10.6423  -8.1601  -0.7102   2.8553   3.2485   4.0328

          k = 0.0675 0.5069 0.0000 (  4864 PWs)   bands (ev):

   -19.2683 -16.2094 -10.9353  -7.1223  -2.1524   2.7008   4.8303   5.6324

          k = 0.0675 0.5848 0.0000 (  4856 PWs)   bands (ev):

   -18.4307 -17.1928 -11.0345  -6.5810  -2.8365   2.6425   6.5750   6.7392

          k = 0.1351 0.2339 0.0000 (  4941 PWs)   bands (ev):

   -22.2069 -10.9592 -10.1926  -9.7365   0.6635   1.4418   2.2568   2.5963

          k = 0.1351 0.3119 0.0000 (  4919 PWs)   bands (ev):

   -21.5200 -12.2996 -10.5877  -9.4077   1.4276   1.6098   2.3954   3.2248

          k = 0.1351 0.3899 0.0000 (  4893 PWs)   bands (ev):

   -20.6509 -13.8120 -11.2291  -8.4439  -0.1123   2.8193   3.6073   4.2038

          k = 0.1351 0.4679 0.0000 (  4890 PWs)   bands (ev):

   -19.6202 -15.3379 -11.6547  -7.3771  -1.6158   3.9694   4.3140   5.0579

          k = 0.1351 0.5458 0.0000 (  4881 PWs)   bands (ev):

   -18.5288 -16.6934 -11.8669  -6.4711  -2.7568   3.8684   5.9968   6.6322

          k = 0.2026 0.3509 0.0000 (  4919 PWs)   bands (ev):

   -20.7466 -13.2986 -11.6741  -8.5404   0.1265   2.6869   3.4599   4.3310

          k = 0.2026 0.4289 0.0000 (  4903 PWs)   bands (ev):

   -19.8024 -14.5208 -12.4538  -7.5192  -1.2433   4.0204   4.7509   5.6901

          k = 0.2026 0.5069 0.0000 (  4898 PWs)   bands (ev):

   -18.7277 -15.8528 -12.8727  -6.4624  -2.5290   5.5000   5.6796   6.0874

          k = 0.2026 0.5848 0.0000 (  4892 PWs)   bands (ev):

   -17.9047 -16.7758 -13.0045  -5.8627  -3.2086   5.5107   6.6860   7.2073

          k = 0.2701 0.4679 0.0000 (  4897 PWs)   bands (ev):

   -18.8049 -15.3077 -13.4787  -6.4710  -2.4098   5.4563   5.8730   7.1642

          k = 0.2701 0.5458 0.0000 (  4899 PWs)   bands (ev):

   -17.7508 -16.2824 -13.9905  -5.4668  -3.4676   6.2270   6.9845   7.2820

          k = 0.3377 0.5848 0.0000 (  4878 PWs)   bands (ev):

   -16.8582 -16.8582 -14.5069  -4.4519  -4.4519   6.0620   7.8650   7.8650

     the Fermi energy is    -4.4519 ev

!    total energy              =     -22.78697428 Ry
     estimated scf accuracy    <          7.0E-09 Ry
     smearing contrib. (-TS)   =      -0.00005015 Ry
     internal energy E=F+TS    =     -22.78692413 Ry

     The total energy is F=E-TS. E is the sum of the following terms:
     one-electron contribution =    -367.66553598 Ry
     hartree contribution      =     184.40399776 Ry
     xc contribution           =      -6.90441806 Ry
     ewald contribution        =     167.37903214 Ry

     convergence has been achieved in  11 iterations

     Forces acting on atoms (cartesian axes, Ry/au):

     atom    1 type  1   force =     0.00000000    0.00000000    0.00000000
     atom    2 type  1   force =    -0.00000000   -0.00000000    0.00000000

     Total force =     0.000000     Total SCF correction =     0.000000


     Computing stress (Cartesian axis) and pressure

          total   stress  (Ry/bohr**3)                   (kbar)     P=      -41.95
  -0.00038018   0.00000000   0.00000000          -55.93        0.00        0.00
   0.00000000  -0.00038018  -0.00000000            0.00      -55.93       -0.00
   0.00000000   0.00000000  -0.00009525            0.00        0.00      -14.01

     Energy error            =      9.3E-03
     Gradient error          =      1.7E-26
     Cell gradient error     =      3.8E-04


     number of scf cycles    =   2
     number of bfgs steps    =   1

     enthalpy old            =     -22.7776350560 Ry
     enthalpy new            =     -22.7869742849 Ry

     CASE: enthalpy_new < enthalpy_old

     new trust radius        =       0.0806273724 bohr
     new conv_thr            =            1.0E-10 Ry

     new unit-cell volume =    778.10129 a.u.^3 (   115.30272 Ang^3 )
     density =      0.34595 g/cm^3

CELL_PARAMETERS (alat=  4.84000000)
   0.973150207  -0.000000000   0.000000000
  -0.486575104   0.842772801   0.000000000
   0.000000000   0.000000000   8.367768595

ATOMIC_POSITIONS (crystal)
C             0.3333333333        0.6666666667        0.5000000000
C             0.6666666667        0.3333333333        0.5000000000



     Writing output data file ./work/LiC484.save/
     NEW-OLD atomic charge density approx. for the potential

     negative rho (up, down):  4.515E-06 0.000E+00
     extrapolated charge    7.76750, renormalised to    8.00000

     total cpu time spent up to now is        3.6 secs

     Self-consistent Calculation

     iteration #  1     ecut=    50.00 Ry     beta= 0.70
     Davidson diagonalization with overlap
     c_bands:  1 eigenvalues not converged
     c_bands:  3 eigenvalues not converged
     c_bands:  1 eigenvalues not converged
     c_bands:  1 eigenvalues not converged
     c_bands:  4 eigenvalues not converged
     c_bands:  2 eigenvalues not converged
     c_bands:  1 eigenvalues not converged
     c_bands:  2 eigenvalues not converged
     c_bands:  2 eigenvalues not converged
     c_bands:  1 eigenvalues not converged
     c_bands:  1 eigenvalues not converged
     c_bands:  1 eigenvalues not converged
     c_bands:  2 eigenvalues not converged
     c_bands:  1 eigenvalues not converged
     c_bands:  1 eigenvalues not converged
     c_bands:  1 eigenvalues not converged
     ethr =  1.00E-06,  avg # of iterations = 17.7

     negative rho (up, down):  2.695E-07 0.000E+00

     total cpu time spent up to now is        4.1 secs

     total energy              =     -22.77046573 Ry
     estimated scf accuracy    <       0.01232879 Ry

     iteration #  2     ecut=    50.00 Ry     beta= 0.70
     Davidson diagonalization with overlap
     ethr =  1.54E-04,  avg # of iterations =  9.9

     negative rho (up, down):  4.182E-08 0.000E+00

     total cpu time spent up to now is        4.4 secs

     total energy              =     -22.79435329 Ry
     estimated scf accuracy    <       0.01124812 Ry

     iteration #  3     ecut=    50.00 Ry     beta= 0.70
     Davidson diagonalization with overlap
     ethr =  1.41E-04,  avg # of iterations =  1.0

     total cpu time spent up to now is        4.5 secs

     total energy              =     -22.79342860 Ry
     estimated scf accuracy    <       0.00246515 Ry

     iteration #  4     ecut=    50.00 Ry     beta= 0.70
     Davidson diagonalization with overlap
     ethr =  3.08E-05,  avg # of iterations =  2.8

     total cpu time spent up to now is        4.6 secs

     total energy              =     -22.79375818 Ry
     estimated scf accuracy    <       0.00004156 Ry

     iteration #  5     ecut=    50.00 Ry     beta= 0.70
     Davidson diagonalization with overlap
     c_bands:  1 eigenvalues not converged
     ethr =  5.19E-07,  avg # of iterations =  5.5

     total cpu time spent up to now is        4.8 secs

     total energy              =     -22.79377363 Ry
     estimated scf accuracy    <       0.00001688 Ry

     iteration #  6     ecut=    50.00 Ry     beta= 0.70
     Davidson diagonalization with overlap
     ethr =  2.11E-07,  avg # of iterations =  1.3

     total cpu time spent up to now is        4.9 secs

     total energy              =     -22.79375716 Ry
     estimated scf accuracy    <       0.00002974 Ry

     iteration #  7     ecut=    50.00 Ry     beta= 0.70
     Davidson diagonalization with overlap
     ethr =  2.11E-07,  avg # of iterations =  2.3

     total cpu time spent up to now is        5.0 secs

     total energy              =     -22.79376102 Ry
     estimated scf accuracy    <       0.00000237 Ry

     iteration #  8     ecut=    50.00 Ry     beta= 0.70
     Davidson diagonalization with overlap
     ethr =  2.97E-08,  avg # of iterations =  1.0

     total cpu time spent up to now is        5.1 secs

     total energy              =     -22.79376097 Ry
     estimated scf accuracy    <       0.00000131 Ry

     iteration #  9     ecut=    50.00 Ry     beta= 0.70
     Davidson diagonalization with overlap
     ethr =  1.63E-08,  avg # of iterations =  2.0

     total cpu time spent up to now is        5.3 secs

     total energy              =     -22.79376107 Ry
     estimated scf accuracy    <       0.00000006 Ry

     iteration # 10     ecut=    50.00 Ry     beta= 0.70
     Davidson diagonalization with overlap
     ethr =  7.40E-10,  avg # of iterations =  2.6

     total cpu time spent up to now is        5.4 secs

     total energy              =     -22.79376109 Ry
     estimated scf accuracy    <          9.0E-09 Ry

     iteration # 11     ecut=    50.00 Ry     beta= 0.70
     Davidson diagonalization with overlap
     ethr =  1.12E-10,  avg # of iterations =  1.1

     total cpu time spent up to now is        5.5 secs

     total energy              =     -22.79376109 Ry
     estimated scf accuracy    <          4.8E-09 Ry

     iteration # 12     ecut=    50.00 Ry     beta= 0.70
     Davidson diagonalization with overlap
     ethr =  5.96E-11,  avg # of iterations =  2.0

     total cpu time spent up to now is        5.7 secs

     total energy              =     -22.79376109 Ry
     estimated scf accuracy    <          1.2E-09 Ry

     iteration # 13     ecut=    50.00 Ry     beta= 0.70
     Davidson diagonalization with overlap
     ethr =  1.56E-11,  avg # of iterations =  1.0

     total cpu time spent up to now is        5.8 secs

     total energy              =     -22.79376109 Ry
     estimated scf accuracy    <          2.7E-10 Ry

     iteration # 14     ecut=    50.00 Ry     beta= 0.70
     Davidson diagonalization with overlap
     ethr =  3.37E-12,  avg # of iterations =  2.0

     total cpu time spent up to now is        5.9 secs

     End of self-consistent calculation

          k = 0.0000 0.0000 0.0000 (  4999 PWs)   bands (ev):

   -23.6183 -11.7464  -7.4352  -7.4352  -0.9721  -0.1992   0.5950   0.9486

          k = 0.0000 0.0791 0.0000 (  4991 PWs)   bands (ev):

   -23.5155 -11.6240  -7.8532  -7.6489  -0.8325  -0.0579   0.7374   1.0903

          k = 0.0000 0.1582 0.0000 (  4959 PWs)   bands (ev):

   -23.2078 -11.2586  -8.9633  -8.1931  -0.4139   0.3658   1.1647   1.5152

          k = 0.0000 0.2373 0.0000 (  4933 PWs)   bands (ev):

   -22.6973 -10.6588 -10.4835  -8.8744   0.2833   1.0692   1.8766   2.2206

          k = 0.0000 0.3164 0.0000 (  4923 PWs)   bands (ev):

   -21.9884 -12.1816  -9.8384  -9.5401   1.2566   1.9802   2.3341   2.8684

          k = 0.0000 0.3955 0.0000 (  4920 PWs)   bands (ev):

   -21.0891 -13.9099 -10.0950  -8.8303   0.4544   2.4916   3.0808   3.3371

          k = 0.0000 0.4746 0.0000 (  4866 PWs)   bands (ev):

   -20.0169 -15.5694 -10.4842  -7.7194  -1.2340   2.8415   4.0409   4.8677

          k = 0.0000 0.5537 0.0000 (  4852 PWs)   bands (ev):

   -18.8599 -17.0293 -10.6859  -6.7945  -2.4677   2.7346   5.8079   6.6514

          k = 0.0685 0.1187 0.0000 (  4975 PWs)   bands (ev):

   -23.3102 -11.3803  -8.5678  -8.0786  -0.5534   0.2247   1.0223   1.3736

          k = 0.0685 0.1978 0.0000 (  4946 PWs)   bands (ev):

   -22.9011 -10.8976  -9.7966  -8.7803   0.0048   0.7886   1.5921   1.9394

          k = 0.0685 0.2769 0.0000 (  4919 PWs)   bands (ev):

   -22.2914 -11.3478 -10.1856  -9.5132   0.8408   1.6278   2.4462   2.7661

          k = 0.0685 0.3560 0.0000 (  4913 PWs)   bands (ev):

   -21.4871 -13.0305 -10.1547  -9.2675   1.2640   1.9508   2.7738   3.5541

          k = 0.0685 0.4351 0.0000 (  4886 PWs)   bands (ev):

   -20.4996 -14.7101 -10.6426  -8.1917  -0.4634   3.2651   3.4818   4.1634

          k = 0.0685 0.5142 0.0000 (  4864 PWs)   bands (ev):

   -19.3628 -16.2852 -10.9457  -7.1092  -1.9748   3.2358   4.9939   5.8146

          k = 0.0685 0.5933 0.0000 (  4856 PWs)   bands (ev):

   -18.4610 -17.3363 -11.0484  -6.5416  -2.6938   3.1809   6.7959   6.9564

          k = 0.1370 0.2373 0.0000 (  4941 PWs)   bands (ev):

   -22.3928 -10.8837 -10.3027  -9.7087   0.7022   1.4916   2.3045   2.6452

          k = 0.1370 0.3164 0.0000 (  4919 PWs)   bands (ev):

   -21.6874 -12.2515 -10.5893  -9.4884   1.6760   1.7845   2.4762   3.3011

          k = 0.1370 0.3955 0.0000 (  4893 PWs)   bands (ev):

   -20.7939 -13.8048 -11.2477  -8.4873   0.1722   2.9213   3.7245   4.5696

          k = 0.1370 0.4746 0.0000 (  4890 PWs)   bands (ev):

   -19.7309 -15.3766 -11.6838  -7.3770  -1.4022   4.3843   4.6022   5.2225

          k = 0.1370 0.5537 0.0000 (  4881 PWs)   bands (ev):

   -18.5879 -16.7912 -11.9013  -6.4300  -2.5988   4.4300   6.1966   6.8582

          k = 0.2055 0.3560 0.0000 (  4919 PWs)   bands (ev):

   -20.8926 -13.2576 -11.7215  -8.5879   0.4286   2.7848   3.5721   4.4397

          k = 0.2055 0.4351 0.0000 (  4903 PWs)   bands (ev):

   -19.9205 -14.5116 -12.5229  -7.5262  -1.0015   4.1583   4.9057   5.8561

          k = 0.2055 0.5142 0.0000 (  4898 PWs)   bands (ev):

   -18.8079 -15.8938 -12.9461  -6.4248  -2.3453   5.7615   6.1992   6.2930

          k = 0.2055 0.5933 0.0000 (  4892 PWs)   bands (ev):

   -17.9281 -16.8784 -13.0787  -5.7973  -3.0577   6.1064   6.9161   7.4666

          k = 0.2740 0.4746 0.0000 (  4897 PWs)   bands (ev):

   -18.8910 -15.2956 -13.6007  -6.4355  -2.2132   5.6398   6.0686   7.3622

          k = 0.2740 0.5537 0.0000 (  4899 PWs)   bands (ev):

   -17.7922 -16.3077 -14.1292  -5.3887  -3.3147   6.4240   7.2693   7.8567

          k = 0.3425 0.5933 0.0000 (  4878 PWs)   bands (ev):

   -16.8675 -16.8675 -14.6977  -4.3341  -4.3341   6.2433   8.3122   8.3122

     the Fermi energy is    -4.3341 ev

!    total energy              =     -22.79376109 Ry
     estimated scf accuracy    <          8.8E-13 Ry
     smearing contrib. (-TS)   =      -0.00005015 Ry
     internal energy E=F+TS    =     -22.79371094 Ry

     The total energy is F=E-TS. E is the sum of the following terms:
     one-electron contribution =    -378.48840976 Ry
     hartree contribution      =     189.84207194 Ry
     xc contribution           =      -6.96449704 Ry
     ewald contribution        =     172.81712393 Ry

     convergence has been achieved in  14 iterations

     Forces acting on atoms (cartesian axes, Ry/au):

     atom    1 type  1   force =     0.00000000    0.00000000    0.00000000
     atom    2 type  1   force =    -0.00000000   -0.00000000    0.00000000

     Total force =     0.000000     Total SCF correction =     0.000000


     Computing stress (Cartesian axis) and pressure

          total   stress  (Ry/bohr**3)                   (kbar)     P=      -25.69
  -0.00021477   0.00000000   0.00000000          -31.59        0.00        0.00
   0.00000000  -0.00021477   0.00000000            0.00      -31.59        0.00
   0.00000000   0.00000000  -0.00009438            0.00        0.00      -13.88

     Energy error            =      6.8E-03
     Gradient error          =      1.8E-26
     Cell gradient error     =      2.1E-04


     number of scf cycles    =   3
     number of bfgs steps    =   2

     enthalpy old            =     -22.7869742849 Ry
     enthalpy new            =     -22.7937610931 Ry

     CASE: enthalpy_new < enthalpy_old

     new trust radius        =       0.1013245497 bohr
     new conv_thr            =            1.0E-10 Ry

     new unit-cell volume =    750.09402 a.u.^3 (   111.15247 Ang^3 )
     density =      0.35886 g/cm^3

CELL_PARAMETERS (alat=  4.84000000)
   0.955475733  -0.000000000   0.000000000
  -0.477737867   0.827466258   0.000000000
   0.000000000   0.000000000   8.367768595

ATOMIC_POSITIONS (crystal)
C             0.3333333333        0.6666666667        0.5000000000
C             0.6666666667        0.3333333333        0.5000000000



     Writing output data file ./work/LiC484.save/
     NEW-OLD atomic charge density approx. for the potential

     negative rho (up, down):  4.808E-06 0.000E+00
     extrapolated charge    7.70181, renormalised to    8.00000

     total cpu time spent up to now is        6.0 secs

     Self-consistent Calculation

     iteration #  1     ecut=    50.00 Ry     beta= 0.70
     Davidson diagonalization with overlap
     c_bands:  2 eigenvalues not converged
     c_bands:  1 eigenvalues not converged
     c_bands:  3 eigenvalues not converged
     c_bands:  2 eigenvalues not converged
     c_bands:  1 eigenvalues not converged
     c_bands:  1 eigenvalues not converged
     c_bands:  1 eigenvalues not converged
     c_bands:  3 eigenvalues not converged
     c_bands:  1 eigenvalues not converged
     c_bands:  1 eigenvalues not converged
     c_bands:  1 eigenvalues not converged
     c_bands:  1 eigenvalues not converged
     c_bands:  2 eigenvalues not converged
     c_bands:  1 eigenvalues not converged
     c_bands:  2 eigenvalues not converged
     c_bands:  1 eigenvalues not converged
     ethr =  1.00E-06,  avg # of iterations = 18.5

     negative rho (up, down):  3.466E-07 0.000E+00

     total cpu time spent up to now is        6.5 secs

     total energy              =     -22.75953220 Ry
     estimated scf accuracy    <       0.01942754 Ry

     iteration #  2     ecut=    50.00 Ry     beta= 0.70
     Davidson diagonalization with overlap
     ethr =  2.43E-04,  avg # of iterations = 10.5

     negative rho (up, down):  6.594E-08 0.000E+00

     total cpu time spent up to now is        6.8 secs

     total energy              =     -22.79739096 Ry
     estimated scf accuracy    <       0.01797104 Ry

     iteration #  3     ecut=    50.00 Ry     beta= 0.70
     Davidson diagonalization with overlap
     ethr =  2.25E-04,  avg # of iterations =  1.1

     total cpu time spent up to now is        6.9 secs

     total energy              =     -22.79602558 Ry
     estimated scf accuracy    <       0.00391231 Ry

     iteration #  4     ecut=    50.00 Ry     beta= 0.70
     Davidson diagonalization with overlap
     ethr =  4.89E-05,  avg # of iterations =  3.4

     total cpu time spent up to now is        7.0 secs

     total energy              =     -22.79645570 Ry
     estimated scf accuracy    <       0.00011954 Ry

     iteration #  5     ecut=    50.00 Ry     beta= 0.70
     Davidson diagonalization with overlap
     c_bands:  1 eigenvalues not converged
     ethr =  1.49E-06,  avg # of iterations =  6.4

     total cpu time spent up to now is        7.2 secs

     total energy              =     -22.79649409 Ry
     estimated scf accuracy    <       0.00000916 Ry

     iteration #  6     ecut=    50.00 Ry     beta= 0.70
     Davidson diagonalization with overlap
     ethr =  1.14E-07,  avg # of iterations =  2.1

     total cpu time spent up to now is        7.4 secs

     total energy              =     -22.79647543 Ry
     estimated scf accuracy    <       0.00003359 Ry

     iteration #  7     ecut=    50.00 Ry     beta= 0.70
     Davidson diagonalization with overlap
     ethr =  1.14E-07,  avg # of iterations =  2.0

     total cpu time spent up to now is        7.5 secs

     total energy              =     -22.79648127 Ry
     estimated scf accuracy    <       0.00000096 Ry

     iteration #  8     ecut=    50.00 Ry     beta= 0.70
     Davidson diagonalization with overlap
     ethr =  1.20E-08,  avg # of iterations =  1.1

     total cpu time spent up to now is        7.6 secs

     total energy              =     -22.79648129 Ry
     estimated scf accuracy    <       0.00000053 Ry

     iteration #  9     ecut=    50.00 Ry     beta= 0.70
     Davidson diagonalization with overlap
     ethr =  6.67E-09,  avg # of iterations =  1.1

     total cpu time spent up to now is        7.7 secs

     total energy              =     -22.79648131 Ry
     estimated scf accuracy    <       0.00000003 Ry

     iteration # 10     ecut=    50.00 Ry     beta= 0.70
     Davidson diagonalization with overlap
     ethr =  3.22E-10,  avg # of iterations =  2.6

     total cpu time spent up to now is        7.9 secs

     total energy              =     -22.79648131 Ry
     estimated scf accuracy    <          3.4E-09 Ry

     iteration # 11     ecut=    50.00 Ry     beta= 0.70
     Davidson diagonalization with overlap
     ethr =  4.31E-11,  avg # of iterations =  1.1

     total cpu time spent up to now is        8.0 secs

     total energy              =     -22.79648131 Ry
     estimated scf accuracy    <          1.4E-09 Ry

     iteration # 12     ecut=    50.00 Ry     beta= 0.70
     Davidson diagonalization with overlap
     ethr =  1.81E-11,  avg # of iterations =  2.0

     total cpu time spent up to now is        8.1 secs

     total energy              =     -22.79648131 Ry
     estimated scf accuracy    <          3.4E-10 Ry

     iteration # 13     ecut=    50.00 Ry     beta= 0.70
     Davidson diagonalization with overlap
     ethr =  4.22E-12,  avg # of iterations =  1.1

     total cpu time spent up to now is        8.2 secs

     End of self-consistent calculation

          k = 0.0000 0.0000 0.0000 (  4999 PWs)   bands (ev):

   -23.8974 -11.9578  -7.2652  -7.2652  -0.9821  -0.1987   0.5943   0.9477

          k = 0.0000 0.0806 0.0000 (  4991 PWs)   bands (ev):

   -23.7912 -11.8298  -7.6911  -7.4918  -0.8375  -0.0519   0.7420   1.0949

          k = 0.0000 0.1611 0.0000 (  4959 PWs)   bands (ev):

   -23.4734 -11.4476  -8.8256  -8.0670  -0.4035   0.3880   1.1852   1.5361

          k = 0.0000 0.2417 0.0000 (  4933 PWs)   bands (ev):

   -22.9460 -10.8199 -10.3848  -8.7850   0.3193   1.1188   1.9238   2.2690

          k = 0.0000 0.3223 0.0000 (  4923 PWs)   bands (ev):

   -22.2133 -12.1319  -9.9607  -9.4848   1.3289   2.1073   2.7722   2.9558

          k = 0.0000 0.4028 0.0000 (  4920 PWs)   bands (ev):

   -21.2826 -13.9142 -10.0671  -8.9032   0.8287   2.6167   3.4778   3.7456

          k = 0.0000 0.4834 0.0000 (  4866 PWs)   bands (ev):

   -20.1688 -15.6320 -10.4755  -7.7344  -0.9606   3.5206   4.2319   5.0678

          k = 0.0000 0.5640 0.0000 (  4852 PWs)   bands (ev):

   -18.9423 -17.1704 -10.6868  -6.7555  -2.2714   3.4334   6.0551   6.9262

          k = 0.0698 0.1209 0.0000 (  4975 PWs)   bands (ev):

   -23.5792 -11.5749  -8.4186  -7.9464  -0.5481   0.2415   1.0375   1.3891

          k = 0.0698 0.2014 0.0000 (  4946 PWs)   bands (ev):

   -23.1566 -11.0699  -9.6749  -8.6858   0.0307   0.8272   1.6286   1.9766

          k = 0.0698 0.2820 0.0000 (  4919 PWs)   bands (ev):

   -22.5265 -11.2691 -10.3245  -9.4542   0.8976   1.7001   2.5149   2.8488

          k = 0.0698 0.3626 0.0000 (  4913 PWs)   bands (ev):

   -21.6948 -13.0034 -10.1250  -9.3622   1.6891   2.0493   2.8961   3.6919

          k = 0.0698 0.4431 0.0000 (  4886 PWs)   bands (ev):

   -20.6715 -14.7392 -10.6349  -8.2323  -0.1387   3.4685   4.1232   4.3358

          k = 0.0698 0.5237 0.0000 (  4864 PWs)   bands (ev):

   -19.4844 -16.3776 -10.9515  -7.0907  -1.7421   3.9389   5.2127   6.0547

          k = 0.0698 0.6043 0.0000 (  4856 PWs)   bands (ev):

   -18.4912 -17.5246 -11.0588  -6.4879  -2.5075   3.8913   7.0877   7.2435

          k = 0.1395 0.2417 0.0000 (  4941 PWs)   bands (ev):

   -22.6314 -10.7790 -10.4471  -9.6642   0.7540   1.5573   2.3678   2.7097

          k = 0.1395 0.3223 0.0000 (  4919 PWs)   bands (ev):

   -21.9022 -12.1837 -10.5829  -9.5941   1.7641   2.2516   2.5878   3.4019

          k = 0.1395 0.4028 0.0000 (  4893 PWs)   bands (ev):

   -20.9773 -13.7911 -11.2629  -8.5437   0.5478   3.0564   3.8794   4.7276

          k = 0.1395 0.4834 0.0000 (  4890 PWs)   bands (ev):

   -19.8730 -15.4225 -11.7124  -7.3758  -1.1207   4.6136   5.2959   5.4396

          k = 0.1395 0.5640 0.0000 (  4881 PWs)   bands (ev):

   -18.6627 -16.9141 -11.9368  -6.3743  -2.3915   5.1674   6.4617   7.1561

          k = 0.2093 0.3626 0.0000 (  4919 PWs)   bands (ev):

   -21.0798 -13.1982 -11.7759  -8.6496   0.8284   2.9146   3.7202   4.5833

          k = 0.2093 0.4431 0.0000 (  4903 PWs)   bands (ev):

   -20.0719 -14.4956 -12.6033  -7.5344  -0.6814   4.3408   5.1099   6.0563

          k = 0.2093 0.5237 0.0000 (  4898 PWs)   bands (ev):

   -18.9104 -15.9444 -13.0304  -6.3740  -2.1025   6.0186   6.5650   6.9622

          k = 0.2093 0.6043 0.0000 (  4892 PWs)   bands (ev):

   -17.9499 -17.0165 -13.1636  -5.7093  -2.8588   6.8836   7.2223   7.8036

          k = 0.2791 0.4834 0.0000 (  4897 PWs)   bands (ev):

   -19.0010 -15.2731 -13.7524  -6.3876  -1.9523   5.8819   6.3276   7.6240

          k = 0.2791 0.5640 0.0000 (  4899 PWs)   bands (ev):

   -17.8427 -16.3388 -14.2991  -5.2843  -3.1116   6.6855   7.6040   8.6222

          k = 0.3489 0.6043 0.0000 (  4878 PWs)   bands (ev):

   -16.8720 -16.8720 -14.9454  -4.1772  -4.1772   6.4837   8.8508   8.8508

     the Fermi energy is    -4.1772 ev

!    total energy              =     -22.79648131 Ry
     estimated scf accuracy    <          8.8E-11 Ry
     smearing contrib. (-TS)   =      -0.00005015 Ry
     internal energy E=F+TS    =     -22.79643116 Ry

     The total energy is F=E-TS. E is the sum of the following terms:
     one-electron contribution =    -392.78861906 Ry
     hartree contribution      =     197.02868388 Ry
     xc contribution           =      -7.04305238 Ry
     ewald contribution        =     180.00655640 Ry

     convergence has been achieved in  13 iterations

     Forces acting on atoms (cartesian axes, Ry/au):

     atom    1 type  1   force =    -0.00000000   -0.00000000    0.00000000
     atom    2 type  1   force =     0.00000000    0.00000000    0.00000000

     Total force =     0.000000     Total SCF correction =     0.000000


     Computing stress (Cartesian axis) and pressure

          total   stress  (Ry/bohr**3)                   (kbar)     P=       -1.80
   0.00002819   0.00000000  -0.00000000            4.15        0.00       -0.00
   0.00000000   0.00002819   0.00000000            0.00        4.15        0.00
   0.00000000  -0.00000000  -0.00009302            0.00       -0.00      -13.68

     Energy error            =      2.7E-03
     Gradient error          =      1.8E-26
     Cell gradient error     =      2.8E-05


     number of scf cycles    =   4
     number of bfgs steps    =   3

     enthalpy old            =     -22.7937610931 Ry
     enthalpy new            =     -22.7964813115 Ry

     CASE: enthalpy_new < enthalpy_old

     new trust radius        =       0.0115658511 bohr
     new conv_thr            =            1.0E-10 Ry

     new unit-cell volume =    753.26500 a.u.^3 (   111.62236 Ang^3 )
     density =      0.35735 g/cm^3

CELL_PARAMETERS (alat=  4.84000000)
   0.957493214  -0.000000000   0.000000000
  -0.478746607   0.829213447   0.000000000
   0.000000000   0.000000000   8.367768595

ATOMIC_POSITIONS (crystal)
C             0.3333333333        0.6666666667        0.5000000000
C             0.6666666667        0.3333333333        0.5000000000



     Writing output data file ./work/LiC484.save/
     NEW-OLD atomic charge density approx. for the potential

     negative rho (up, down):  1.456E-07 0.000E+00
     extrapolated charge    8.03362, renormalised to    8.00000

     total cpu time spent up to now is        8.3 secs

     Self-consistent Calculation

     iteration #  1     ecut=    50.00 Ry     beta= 0.70
     Davidson diagonalization with overlap
     c_bands:  1 eigenvalues not converged
     c_bands:  1 eigenvalues not converged
     c_bands:  3 eigenvalues not converged
     c_bands:  1 eigenvalues not converged
     c_bands:  1 eigenvalues not converged
     c_bands:  2 eigenvalues not converged
     ethr =  1.00E-06,  avg # of iterations = 13.6

     total cpu time spent up to now is        8.7 secs

     total energy              =     -22.79580267 Ry
     estimated scf accuracy    <       0.00036904 Ry

     iteration #  2     ecut=    50.00 Ry     beta= 0.70
     Davidson diagonalization with overlap
     c_bands:  1 eigenvalues not converged
     c_bands:  1 eigenvalues not converged
     c_bands:  1 eigenvalues not converged
     c_bands:  1 eigenvalues not converged
     c_bands:  1 eigenvalues not converged
     ethr =  4.61E-06,  avg # of iterations = 13.2

     total cpu time spent up to now is        9.0 secs

     total energy              =     -22.79654475 Ry
     estimated scf accuracy    <       0.00035043 Ry

     iteration #  3     ecut=    50.00 Ry     beta= 0.70
     Davidson diagonalization with overlap
     ethr =  4.38E-06,  avg # of iterations =  1.8

     total cpu time spent up to now is        9.1 secs

     total energy              =     -22.79652862 Ry
     estimated scf accuracy    <       0.00008004 Ry

     iteration #  4     ecut=    50.00 Ry     beta= 0.70
     Davidson diagonalization with overlap
     ethr =  1.00E-06,  avg # of iterations =  1.3

     total cpu time spent up to now is        9.3 secs

     total energy              =     -22.79653175 Ry
     estimated scf accuracy    <       0.00001999 Ry

     iteration #  5     ecut=    50.00 Ry     beta= 0.70
     Davidson diagonalization with overlap
     ethr =  2.50E-07,  avg # of iterations =  1.0

     total cpu time spent up to now is        9.4 secs

     total energy              =     -22.79652051 Ry
     estimated scf accuracy    <       0.00001877 Ry

     iteration #  6     ecut=    50.00 Ry     beta= 0.70
     Davidson diagonalization with overlap
     ethr =  2.35E-07,  avg # of iterations =  2.0

     total cpu time spent up to now is        9.5 secs

     total energy              =     -22.79652305 Ry
     estimated scf accuracy    <       0.00000017 Ry

     iteration #  7     ecut=    50.00 Ry     beta= 0.70
     Davidson diagonalization with overlap
     ethr =  2.19E-09,  avg # of iterations =  2.9

     total cpu time spent up to now is        9.6 secs

     total energy              =     -22.79652316 Ry
     estimated scf accuracy    <       0.00000004 Ry

     iteration #  8     ecut=    50.00 Ry     beta= 0.70
     Davidson diagonalization with overlap
     ethr =  4.51E-10,  avg # of iterations =  2.0

     total cpu time spent up to now is        9.8 secs

     total energy              =     -22.79652316 Ry
     estimated scf accuracy    <       0.00000001 Ry

     iteration #  9     ecut=    50.00 Ry     beta= 0.70
     Davidson diagonalization with overlap
     ethr =  1.63E-10,  avg # of iterations =  2.0

     total cpu time spent up to now is        9.9 secs

     total energy              =     -22.79652316 Ry
     estimated scf accuracy    <          2.3E-10 Ry

     iteration # 10     ecut=    50.00 Ry     beta= 0.70
     Davidson diagonalization with overlap
     ethr =  2.93E-12,  avg # of iterations =  2.7

     total cpu time spent up to now is       10.0 secs

     total energy              =     -22.79652316 Ry
     estimated scf accuracy    <          1.2E-10 Ry

     iteration # 11     ecut=    50.00 Ry     beta= 0.70
     Davidson diagonalization with overlap
     ethr =  1.46E-12,  avg # of iterations =  1.0

     total cpu time spent up to now is       10.1 secs

     End of self-consistent calculation

          k = 0.0000 0.0000 0.0000 (  4999 PWs)   bands (ev):

   -23.8652 -11.9331  -7.2855  -7.2855  -0.9810  -0.1988   0.5944   0.9478

          k = 0.0000 0.0804 0.0000 (  4991 PWs)   bands (ev):

   -23.7594 -11.8058  -7.7105  -7.5106  -0.8370  -0.0527   0.7415   1.0944

          k = 0.0000 0.1608 0.0000 (  4959 PWs)   bands (ev):

   -23.4427 -11.4256  -8.8420  -8.0822  -0.4048   0.3854   1.1829   1.5337

          k = 0.0000 0.2412 0.0000 (  4933 PWs)   bands (ev):

   -22.9173 -10.8011 -10.3966  -8.7959   0.3150   1.1129   1.9183   2.2634

          k = 0.0000 0.3216 0.0000 (  4923 PWs)   bands (ev):

   -22.1874 -12.1380  -9.9464  -9.4916   1.3203   2.0947   2.7197   2.9460

          k = 0.0000 0.4020 0.0000 (  4920 PWs)   bands (ev):

   -21.2603 -13.9140 -10.0708  -8.8947   0.7850   2.6024   3.4612   3.6683

          k = 0.0000 0.4824 0.0000 (  4866 PWs)   bands (ev):

   -20.1513 -15.6251 -10.4769  -7.7327  -0.9925   3.4422   4.2085   5.0444

          k = 0.0000 0.5628 0.0000 (  4852 PWs)   bands (ev):

   -18.9328 -17.1544 -10.6871  -6.7601  -2.2942   3.3517   6.0261   6.8941

          k = 0.0696 0.1206 0.0000 (  4975 PWs)   bands (ev):

   -23.5482 -11.5522  -8.4364  -7.9623  -0.5488   0.2395   1.0358   1.3873

          k = 0.0696 0.2010 0.0000 (  4946 PWs)   bands (ev):

   -23.1271 -11.0498  -9.6894  -8.6973   0.0276   0.8226   1.6244   1.9723

          k = 0.0696 0.2814 0.0000 (  4919 PWs)   bands (ev):

   -22.4994 -11.2786 -10.3083  -9.4616   0.8909   1.6915   2.5068   2.8404

          k = 0.0696 0.3618 0.0000 (  4913 PWs)   bands (ev):

   -21.6708 -13.0068 -10.1289  -9.3511   1.6396   2.0377   2.8817   3.6786

          k = 0.0696 0.4422 0.0000 (  4886 PWs)   bands (ev):

   -20.6516 -14.7361 -10.6362  -8.2276  -0.1766   3.4491   4.0440   4.3156

          k = 0.0696 0.5226 0.0000 (  4864 PWs)   bands (ev):

   -19.4703 -16.3673 -10.9512  -7.0929  -1.7692   3.8569   5.1868   6.0266

          k = 0.0696 0.6030 0.0000 (  4856 PWs)   bands (ev):

   -18.4883 -17.5027 -11.0580  -6.4942  -2.5291   3.8083   7.0535   7.2099

          k = 0.1393 0.2412 0.0000 (  4941 PWs)   bands (ev):

   -22.6038 -10.7915 -10.4303  -9.6698   0.7479   1.5496   2.3604   2.7021

          k = 0.1393 0.3216 0.0000 (  4919 PWs)   bands (ev):

   -21.8774 -12.1918 -10.5841  -9.5818   1.7538   2.1977   2.5740   3.3901

          k = 0.1393 0.4020 0.0000 (  4893 PWs)   bands (ev):

   -20.9561 -13.7930 -11.2617  -8.5372   0.5039   3.0405   3.8613   4.7096

          k = 0.1393 0.4824 0.0000 (  4890 PWs)   bands (ev):

   -19.8566 -15.4174 -11.7096  -7.3760  -1.1536   4.5897   5.2121   5.4142

          k = 0.1393 0.5628 0.0000 (  4881 PWs)   bands (ev):

   -18.6540 -16.9001 -11.9332  -6.3809  -2.4157   5.0815   6.4305   7.1213

          k = 0.2089 0.3618 0.0000 (  4919 PWs)   bands (ev):

   -21.0582 -13.2055 -11.7700  -8.6424   0.7816   2.8994   3.7029   4.5666

          k = 0.2089 0.4422 0.0000 (  4903 PWs)   bands (ev):

   -20.0544 -14.4977 -12.5945  -7.5335  -0.7188   4.3193   5.0860   6.0329

          k = 0.2089 0.5226 0.0000 (  4898 PWs)   bands (ev):

   -18.8986 -15.9387 -13.0212  -6.3800  -2.1309   5.9891   6.5332   6.8731

          k = 0.2089 0.6030 0.0000 (  4892 PWs)   bands (ev):

   -17.9478 -17.0002 -13.1544  -5.7197  -2.8821   6.7933   7.1863   7.7644

          k = 0.2785 0.4824 0.0000 (  4897 PWs)   bands (ev):

   -18.9883 -15.2761 -13.7352  -6.3932  -1.9829   5.8536   6.2973   7.6391

          k = 0.2785 0.5628 0.0000 (  4899 PWs)   bands (ev):

   -17.8370 -16.3353 -14.2801  -5.2965  -3.1354   6.6548   7.5657   8.5337

          k = 0.3481 0.6030 0.0000 (  4878 PWs)   bands (ev):

   -16.8719 -16.8719 -14.9166  -4.1956  -4.1956   6.4555   8.7904   8.7904

     the Fermi energy is    -4.1956 ev

!    total energy              =     -22.79652316 Ry
     estimated scf accuracy    <          7.8E-12 Ry
     smearing contrib. (-TS)   =      -0.00005015 Ry
     internal energy E=F+TS    =     -22.79647301 Ry

     The total energy is F=E-TS. E is the sum of the following terms:
     one-electron contribution =    -391.11526473 Ry
     hartree contribution      =     196.18764678 Ry
     xc contribution           =      -7.03390630 Ry
     ewald contribution        =     179.16505124 Ry

     convergence has been achieved in  11 iterations

     Forces acting on atoms (cartesian axes, Ry/au):

     atom    1 type  1   force =    -0.00000000   -0.00000000    0.00000000
     atom    2 type  1   force =     0.00000000    0.00000000    0.00000000

     Total force =     0.000000     Total SCF correction =     0.000000


     Computing stress (Cartesian axis) and pressure

          total   stress  (Ry/bohr**3)                   (kbar)     P=       -4.74
  -0.00000169   0.00000000   0.00000000           -0.25        0.00        0.00
   0.00000000  -0.00000169   0.00000000            0.00       -0.25        0.00
  -0.00000000  -0.00000000  -0.00009321           -0.00       -0.00      -13.71

     Energy error            =      4.2E-05
     Gradient error          =      1.8E-26
     Cell gradient error     =      1.7E-06


     number of scf cycles    =   5
     number of bfgs steps    =   4

     enthalpy old            =     -22.7964813115 Ry
     enthalpy new            =     -22.7965231624 Ry

     CASE: enthalpy_new < enthalpy_old

     new trust radius        =       0.0006540665 bohr
     new conv_thr            =            1.0E-10 Ry

     new unit-cell volume =    753.08550 a.u.^3 (   111.59576 Ang^3 )
     density =      0.35744 g/cm^3

CELL_PARAMETERS (alat=  4.84000000)
   0.957379122  -0.000000000   0.000000000
  -0.478689561   0.829114641   0.000000000
   0.000000000   0.000000000   8.367768595

ATOMIC_POSITIONS (crystal)
C             0.3333333333        0.6666666667        0.5000000000
C             0.6666666667        0.3333333333        0.5000000000



     Writing output data file ./work/LiC484.save/
     NEW-OLD atomic charge density approx. for the potential
     extrapolated charge    7.99810, renormalised to    8.00000

     total cpu time spent up to now is       10.2 secs

     Self-consistent Calculation

     iteration #  1     ecut=    50.00 Ry     beta= 0.70
     Davidson diagonalization with overlap
     ethr =  1.00E-06,  avg # of iterations =  3.4

     Threshold (ethr) on eigenvalues was too large:
     Diagonalizing with lowered threshold

     Davidson diagonalization with overlap
     ethr =  1.27E-08,  avg # of iterations =  1.0

     total cpu time spent up to now is       10.5 secs

     total energy              =     -22.79652118 Ry
     estimated scf accuracy    <       0.00000109 Ry

     iteration #  2     ecut=    50.00 Ry     beta= 0.70
     Davidson diagonalization with overlap
     ethr =  1.36E-08,  avg # of iterations =  3.3

     total cpu time spent up to now is       10.6 secs

     total energy              =     -22.79652337 Ry
     estimated scf accuracy    <       0.00000101 Ry

     iteration #  3     ecut=    50.00 Ry     beta= 0.70
     Davidson diagonalization with overlap
     ethr =  1.27E-08,  avg # of iterations =  1.0

     total cpu time spent up to now is       10.8 secs

     total energy              =     -22.79652331 Ry
     estimated scf accuracy    <       0.00000023 Ry

     iteration #  4     ecut=    50.00 Ry     beta= 0.70
     Davidson diagonalization with overlap
     ethr =  2.94E-09,  avg # of iterations =  1.9

     total cpu time spent up to now is       10.9 secs

     total energy              =     -22.79652333 Ry
     estimated scf accuracy    <       0.00000003 Ry

     iteration #  5     ecut=    50.00 Ry     beta= 0.70
     Davidson diagonalization with overlap
     ethr =  4.15E-10,  avg # of iterations =  1.0

     total cpu time spent up to now is       11.0 secs

     total energy              =     -22.79652332 Ry
     estimated scf accuracy    <       0.00000004 Ry

     iteration #  6     ecut=    50.00 Ry     beta= 0.70
     Davidson diagonalization with overlap
     ethr =  4.15E-10,  avg # of iterations =  1.0

     total cpu time spent up to now is       11.1 secs

     total energy              =     -22.79652331 Ry
     estimated scf accuracy    <       0.00000002 Ry

     iteration #  7     ecut=    50.00 Ry     beta= 0.70
     Davidson diagonalization with overlap
     ethr =  2.52E-10,  avg # of iterations =  2.0

     total cpu time spent up to now is       11.2 secs

     total energy              =     -22.79652331 Ry
     estimated scf accuracy    <          1.5E-10 Ry

     iteration #  8     ecut=    50.00 Ry     beta= 0.70
     Davidson diagonalization with overlap
     ethr =  1.89E-12,  avg # of iterations =  2.4

     total cpu time spent up to now is       11.4 secs

     End of self-consistent calculation

          k = 0.0000 0.0000 0.0000 (  4999 PWs)   bands (ev):

   -23.8669 -11.9345  -7.2843  -7.2843  -0.9810  -0.1988   0.5944   0.9478

          k = 0.0000 0.0804 0.0000 (  4991 PWs)   bands (ev):

   -23.7611 -11.8070  -7.7093  -7.5095  -0.8370  -0.0526   0.7415   1.0944

          k = 0.0000 0.1608 0.0000 (  4959 PWs)   bands (ev):

   -23.4444 -11.4268  -8.8410  -8.0812  -0.4047   0.3856   1.1830   1.5338

          k = 0.0000 0.2412 0.0000 (  4933 PWs)   bands (ev):

   -22.9188 -10.8021 -10.3959  -8.7952   0.3153   1.1133   1.9186   2.2637

          k = 0.0000 0.3216 0.0000 (  4923 PWs)   bands (ev):

   -22.1888 -12.1375  -9.9472  -9.4912   1.3208   2.0955   2.7228   2.9463

          k = 0.0000 0.4020 0.0000 (  4920 PWs)   bands (ev):

   -21.2614 -13.9139 -10.0705  -8.8951   0.7875   2.6032   3.4622   3.6728

          k = 0.0000 0.4824 0.0000 (  4866 PWs)   bands (ev):

   -20.1522 -15.6254 -10.4768  -7.7327  -0.9906   3.4467   4.2098   5.0458

          k = 0.0000 0.5628 0.0000 (  4852 PWs)   bands (ev):

   -18.9332 -17.1552 -10.6870  -6.7598  -2.2929   3.3564   6.0278   6.8959

          k = 0.0696 0.1206 0.0000 (  4975 PWs)   bands (ev):

   -23.5498 -11.5534  -8.4353  -7.9613  -0.5487   0.2396   1.0358   1.3874

          k = 0.0696 0.2010 0.0000 (  4946 PWs)   bands (ev):

   -23.1287 -11.0508  -9.6885  -8.6966   0.0278   0.8229   1.6246   1.9726

          k = 0.0696 0.2814 0.0000 (  4919 PWs)   bands (ev):

   -22.5009 -11.2780 -10.3092  -9.4611   0.8913   1.6920   2.5073   2.8405

          k = 0.0696 0.3618 0.0000 (  4913 PWs)   bands (ev):

   -21.6721 -13.0066 -10.1286  -9.3517   1.6425   2.0384   2.8825   3.6793

          k = 0.0696 0.4422 0.0000 (  4886 PWs)   bands (ev):

   -20.6527 -14.7362 -10.6361  -8.2278  -0.1744   3.4502   4.0486   4.3168

          k = 0.0696 0.5226 0.0000 (  4864 PWs)   bands (ev):

   -19.4710 -16.3678 -10.9512  -7.0927  -1.7676   3.8616   5.1883   6.0282

          k = 0.0696 0.6031 0.0000 (  4856 PWs)   bands (ev):

   -18.4883 -17.5038 -11.0580  -6.4938  -2.5279   3.8130   7.0555   7.2118

          k = 0.1393 0.2412 0.0000 (  4941 PWs)   bands (ev):

   -22.6053 -10.7907 -10.4312  -9.6694   0.7482   1.5500   2.3608   2.7026

          k = 0.1393 0.3216 0.0000 (  4919 PWs)   bands (ev):

   -21.8787 -12.1913 -10.5839  -9.5824   1.7544   2.2008   2.5748   3.3907

          k = 0.1393 0.4020 0.0000 (  4893 PWs)   bands (ev):

   -20.9572 -13.7928 -11.2616  -8.5375   0.5064   3.0415   3.8623   4.7107

          k = 0.1393 0.4824 0.0000 (  4890 PWs)   bands (ev):

   -19.8575 -15.4176 -11.7097  -7.3759  -1.1516   4.5911   5.2169   5.4156

          k = 0.1393 0.5628 0.0000 (  4881 PWs)   bands (ev):

   -18.6544 -16.9008 -11.9334  -6.3805  -2.4142   5.0864   6.4323   7.1232

          k = 0.2089 0.3618 0.0000 (  4919 PWs)   bands (ev):

   -21.0593 -13.2050 -11.7702  -8.6428   0.7843   2.9003   3.7039   4.5675

          k = 0.2089 0.4422 0.0000 (  4903 PWs)   bands (ev):

   -20.0553 -14.4975 -12.5950  -7.5335  -0.7167   4.3206   5.0874   6.0341

          k = 0.2089 0.5226 0.0000 (  4898 PWs)   bands (ev):

   -18.8992 -15.9389 -13.0217  -6.3796  -2.1292   5.9908   6.5350   6.8782

          k = 0.2089 0.6031 0.0000 (  4892 PWs)   bands (ev):

   -17.9479 -17.0010 -13.1549  -5.7191  -2.8807   6.7984   7.1884   7.7667

          k = 0.2785 0.4824 0.0000 (  4897 PWs)   bands (ev):

   -18.9890 -15.2759 -13.7361  -6.3928  -1.9811   5.8552   6.2990   7.6405

          k = 0.2785 0.5628 0.0000 (  4899 PWs)   bands (ev):

   -17.8372 -16.3354 -14.2811  -5.2958  -3.1340   6.6566   7.5679   8.5388

          k = 0.3482 0.6031 0.0000 (  4878 PWs)   bands (ev):

   -16.8718 -16.8718 -14.9182  -4.1945  -4.1945   6.4572   8.7938   8.7938

     the Fermi energy is    -4.1945 ev

!    total energy              =     -22.79652331 Ry
     estimated scf accuracy    <          4.7E-11 Ry
     smearing contrib. (-TS)   =      -0.00005015 Ry
     internal energy E=F+TS    =     -22.79647316 Ry

     The total energy is F=E-TS. E is the sum of the following terms:
     one-electron contribution =    -391.20958886 Ry
     hartree contribution      =     196.23504287 Ry
     xc contribution           =      -7.03442024 Ry
     ewald contribution        =     179.21249305 Ry

     convergence has been achieved in   8 iterations

     Forces acting on atoms (cartesian axes, Ry/au):

     atom    1 type  1   force =     0.00000000    0.00000000    0.00000000
     atom    2 type  1   force =     0.00000000    0.00000000    0.00000000

     Total force =     0.000000     Total SCF correction =     0.000000


     Computing stress (Cartesian axis) and pressure

          total   stress  (Ry/bohr**3)                   (kbar)     P=       -4.57
  -0.00000001  -0.00000000   0.00000000           -0.00       -0.00        0.00
   0.00000000  -0.00000001   0.00000000            0.00       -0.00        0.00
   0.00000000   0.00000000  -0.00009322            0.00        0.00      -13.71

     Energy error            =      1.5E-07
     Gradient error          =      0.0E+00
     Cell gradient error     =      9.3E-09


     number of scf cycles    =   6
     number of bfgs steps    =   5

     enthalpy old            =     -22.7965231624 Ry
     enthalpy new            =     -22.7965233147 Ry

     CASE: enthalpy_new < enthalpy_old

     small trust_radius: resetting bfgs history

     new trust radius        =       0.0000012803 bohr
     new conv_thr            =            1.0E-10 Ry

     new unit-cell volume =    753.08514 a.u.^3 (   111.59570 Ang^3 )
     density =      0.35744 g/cm^3

CELL_PARAMETERS (alat=  4.84000000)
   0.957378899  -0.000000000   0.000000000
  -0.478689450   0.829114448   0.000000000
   0.000000000   0.000000000   8.367768595

ATOMIC_POSITIONS (crystal)
C             0.3333333333        0.6666666667        0.5000000000
C             0.6666666667        0.3333333333        0.5000000000



     Writing output data file ./work/LiC484.save/
     NEW-OLD atomic charge density approx. for the potential
     extrapolated charge    8.00000, renormalised to    8.00000

     total cpu time spent up to now is       11.4 secs

     Self-consistent Calculation

     iteration #  1     ecut=    50.00 Ry     beta= 0.70
     Davidson diagonalization with overlap
     ethr =  1.00E-06,  avg # of iterations =  1.0

     Threshold (ethr) on eigenvalues was too large:
     Diagonalizing with lowered threshold

     Davidson diagonalization with overlap
     ethr =  3.84E-13,  avg # of iterations =  1.9

     total cpu time spent up to now is       11.7 secs

     End of self-consistent calculation

          k = 0.0000 0.0000 0.0000 (  4999 PWs)   bands (ev):

   -23.8674 -11.9349  -7.2848  -7.2848  -0.9812  -0.1989   0.5944   0.9479

          k = 0.0000 0.0804 0.0000 (  4991 PWs)   bands (ev):

   -23.7616 -11.8075  -7.7098  -7.5099  -0.8372  -0.0527   0.7416   1.0944

          k = 0.0000 0.1608 0.0000 (  4959 PWs)   bands (ev):

   -23.4448 -11.4272  -8.8415  -8.0817  -0.4049   0.3854   1.1830   1.5338

          k = 0.0000 0.2412 0.0000 (  4933 PWs)   bands (ev):

   -22.9193 -10.8025 -10.3964  -8.7957   0.3151   1.1132   1.9187   2.2637

          k = 0.0000 0.3216 0.0000 (  4923 PWs)   bands (ev):

   -22.1892 -12.1380  -9.9476  -9.4916   1.3206   2.0953   2.7224   2.9463

          k = 0.0000 0.4020 0.0000 (  4920 PWs)   bands (ev):

   -21.2619 -13.9144 -10.0709  -8.8955   0.7871   2.6030   3.4621   3.6724

          k = 0.0000 0.4824 0.0000 (  4866 PWs)   bands (ev):

   -20.1527 -15.6259 -10.4772  -7.7332  -0.9910   3.4463   4.2096   5.0456

          k = 0.0000 0.5628 0.0000 (  4852 PWs)   bands (ev):

   -18.9337 -17.1557 -10.6874  -6.7602  -2.2933   3.3559   6.0275   6.8958

          k = 0.0696 0.1206 0.0000 (  4975 PWs)   bands (ev):

   -23.5503 -11.5538  -8.4358  -7.9618  -0.5489   0.2395   1.0359   1.3874

          k = 0.0696 0.2010 0.0000 (  4946 PWs)   bands (ev):

   -23.1292 -11.0513  -9.6890  -8.6970   0.0276   0.8228   1.6247   1.9726

          k = 0.0696 0.2814 0.0000 (  4919 PWs)   bands (ev):

   -22.5013 -11.2784 -10.3096  -9.4615   0.8910   1.6919   2.5073   2.8405

          k = 0.0696 0.3618 0.0000 (  4913 PWs)   bands (ev):

   -21.6725 -13.0070 -10.1291  -9.3521   1.6421   2.0381   2.8823   3.6793

          k = 0.0696 0.4422 0.0000 (  4886 PWs)   bands (ev):

   -20.6531 -14.7367 -10.6366  -8.2282  -0.1748   3.4500   4.0481   4.3166

          k = 0.0696 0.5226 0.0000 (  4864 PWs)   bands (ev):

   -19.4715 -16.3682 -10.9516  -7.0931  -1.7681   3.8612   5.1881   6.0281

          k = 0.0696 0.6031 0.0000 (  4856 PWs)   bands (ev):

   -18.4888 -17.5043 -11.0584  -6.4942  -2.5283   3.8126   7.0552   7.2116

          k = 0.1393 0.2412 0.0000 (  4941 PWs)   bands (ev):

   -22.6058 -10.7912 -10.4316  -9.6699   0.7480   1.5499   2.3608   2.7026

          k = 0.1393 0.3216 0.0000 (  4919 PWs)   bands (ev):

   -21.8792 -12.1918 -10.5844  -9.5828   1.7542   2.2004   2.5747   3.3908

          k = 0.1393 0.4020 0.0000 (  4893 PWs)   bands (ev):

   -20.9577 -13.7933 -11.2621  -8.5379   0.5060   3.0412   3.8621   4.7107

          k = 0.1393 0.4824 0.0000 (  4890 PWs)   bands (ev):

   -19.8579 -15.4181 -11.7102  -7.3763  -1.1521   4.5909   5.2164   5.4155

          k = 0.1393 0.5628 0.0000 (  4881 PWs)   bands (ev):

   -18.6549 -16.9013 -11.9338  -6.3809  -2.4146   5.0860   6.4321   7.1230

          k = 0.2089 0.3618 0.0000 (  4919 PWs)   bands (ev):

   -21.0598 -13.2054 -11.7707  -8.6432   0.7839   2.9001   3.7037   4.5675

          k = 0.2089 0.4422 0.0000 (  4903 PWs)   bands (ev):

   -20.0558 -14.4979 -12.5954  -7.5339  -0.7171   4.3203   5.0872   6.0342

          k = 0.2089 0.5226 0.0000 (  4898 PWs)   bands (ev):

   -18.8996 -15.9393 -13.0221  -6.3800  -2.1296   5.9906   6.5347   6.8777

          k = 0.2089 0.6031 0.0000 (  4892 PWs)   bands (ev):

   -17.9483 -17.0015 -13.1553  -5.7195  -2.8811   6.7980   7.1881   7.7664

          k = 0.2785 0.4824 0.0000 (  4897 PWs)   bands (ev):

   -18.9894 -15.2763 -13.7365  -6.3932  -1.9815   5.8550   6.2988   7.6405

          k = 0.2785 0.5628 0.0000 (  4899 PWs)   bands (ev):

   -17.8377 -16.3358 -14.2815  -5.2962  -3.1344   6.6562   7.5676   8.5384

          k = 0.3482 0.6031 0.0000 (  4878 PWs)   bands (ev):

   -16.8723 -16.8723 -14.9186  -4.1949  -4.1949   6.4568   8.7935   8.7935

     the Fermi energy is    -4.1949 ev

!    total energy              =     -22.79652331 Ry
     estimated scf accuracy    <          3.3E-11 Ry
     smearing contrib. (-TS)   =      -0.00005015 Ry
     internal energy E=F+TS    =     -22.79647316 Ry

     The total energy is F=E-TS. E is the sum of the following terms:
     one-electron contribution =    -391.20983331 Ry
     hartree contribution      =     196.23520200 Ry
     xc contribution           =      -7.03442779 Ry
     ewald contribution        =     179.21258593 Ry

     convergence has been achieved in   1 iterations

     Forces acting on atoms (cartesian axes, Ry/au):

     atom    1 type  1   force =     0.00000000    0.00000000    0.00000000
     atom    2 type  1   force =     0.00000000    0.00000000    0.00000000

     Total force =     0.000000     Total SCF correction =     0.000000


     Computing stress (Cartesian axis) and pressure

          total   stress  (Ry/bohr**3)                   (kbar)     P=       -4.57
  -0.00000001  -0.00000000   0.00000000           -0.00       -0.00        0.00
   0.00000000  -0.00000001   0.00000000            0.00       -0.00        0.00
   0.00000000   0.00000000  -0.00009315            0.00        0.00      -13.70

     Energy error            =      1.1E-11
     Gradient error          =      0.0E+00
     Cell gradient error     =      1.3E-08


     number of scf cycles    =   7
     number of bfgs steps    =   6

     enthalpy old            =     -22.7965233147 Ry
     enthalpy new            =     -22.7965233147 Ry

     CASE: enthalpy_new > enthalpy_old

     new trust radius        =       0.0000001422 bohr

     trust_radius < trust_radius_min

     resetting bfgs history

     Message from routine bfgs:
     history already reset at previous step: stopping
     new conv_thr            =            1.0E-10 Ry

     new unit-cell volume =    753.08514 a.u.^3 (   111.59570 Ang^3 )
     density =      0.35744 g/cm^3

CELL_PARAMETERS (alat=  4.84000000)
   0.957378899  -0.000000000   0.000000000
  -0.478689450   0.829114448   0.000000000
   0.000000000   0.000000000   8.367768595

ATOMIC_POSITIONS (crystal)
C             0.3333333333        0.6666666667        0.5000000000
C             0.6666666667        0.3333333333        0.5000000000



     Writing output data file ./work/LiC484.save/
     NEW-OLD atomic charge density approx. for the potential

     total cpu time spent up to now is       11.7 secs

     Self-consistent Calculation

     iteration #  1     ecut=    50.00 Ry     beta= 0.70
     Davidson diagonalization with overlap
     ethr =  1.00E-06,  avg # of iterations =  1.0

     Threshold (ethr) on eigenvalues was too large:
     Diagonalizing with lowered threshold

     Davidson diagonalization with overlap
     ethr =  2.57E-13,  avg # of iterations =  1.8

     total cpu time spent up to now is       11.9 secs

     End of self-consistent calculation

          k = 0.0000 0.0000 0.0000 (  4999 PWs)   bands (ev):

   -23.8670 -11.9345  -7.2843  -7.2843  -0.9810  -0.1988   0.5944   0.9478

          k = 0.0000 0.0804 0.0000 (  4991 PWs)   bands (ev):

   -23.7612 -11.8071  -7.7093  -7.5095  -0.8370  -0.0526   0.7415   1.0944

          k = 0.0000 0.1608 0.0000 (  4959 PWs)   bands (ev):

   -23.4444 -11.4268  -8.8411  -8.0813  -0.4047   0.3856   1.1830   1.5338

          k = 0.0000 0.2412 0.0000 (  4933 PWs)   bands (ev):

   -22.9189 -10.8021 -10.3959  -8.7952   0.3153   1.1133   1.9186   2.2637

          k = 0.0000 0.3216 0.0000 (  4923 PWs)   bands (ev):

   -22.1888 -12.1376  -9.9472  -9.4912   1.3208   2.0955   2.7227   2.9463

          k = 0.0000 0.4020 0.0000 (  4920 PWs)   bands (ev):

   -21.2615 -13.9139 -10.0705  -8.8951   0.7875   2.6032   3.4622   3.6728

          k = 0.0000 0.4824 0.0000 (  4866 PWs)   bands (ev):

   -20.1522 -15.6254 -10.4768  -7.7328  -0.9906   3.4467   4.2098   5.0457

          k = 0.0000 0.5628 0.0000 (  4852 PWs)   bands (ev):

   -18.9333 -17.1553 -10.6870  -6.7598  -2.2929   3.3564   6.0278   6.8959

          k = 0.0696 0.1206 0.0000 (  4975 PWs)   bands (ev):

   -23.5499 -11.5534  -8.4354  -7.9614  -0.5487   0.2396   1.0358   1.3874

          k = 0.0696 0.2010 0.0000 (  4946 PWs)   bands (ev):

   -23.1287 -11.0509  -9.6886  -8.6966   0.0278   0.8229   1.6246   1.9726

          k = 0.0696 0.2814 0.0000 (  4919 PWs)   bands (ev):

   -22.5009 -11.2780 -10.3092  -9.4611   0.8912   1.6920   2.5073   2.8405

          k = 0.0696 0.3618 0.0000 (  4913 PWs)   bands (ev):

   -21.6721 -13.0066 -10.1287  -9.3517   1.6425   2.0384   2.8824   3.6792

          k = 0.0696 0.4422 0.0000 (  4886 PWs)   bands (ev):

   -20.6527 -14.7362 -10.6361  -8.2278  -0.1744   3.4502   4.0485   4.3167

          k = 0.0696 0.5226 0.0000 (  4864 PWs)   bands (ev):

   -19.4710 -16.3678 -10.9512  -7.0927  -1.7677   3.8616   5.1883   6.0282

          k = 0.0696 0.6031 0.0000 (  4856 PWs)   bands (ev):

   -18.4884 -17.5039 -11.0580  -6.4938  -2.5279   3.8130   7.0554   7.2118

          k = 0.1393 0.2412 0.0000 (  4941 PWs)   bands (ev):

   -22.6053 -10.7907 -10.4312  -9.6694   0.7482   1.5500   2.3608   2.7026

          k = 0.1393 0.3216 0.0000 (  4919 PWs)   bands (ev):

   -21.8787 -12.1913 -10.5840  -9.5824   1.7544   2.2008   2.5748   3.3907

          k = 0.1393 0.4020 0.0000 (  4893 PWs)   bands (ev):

   -20.9573 -13.7928 -11.2617  -8.5375   0.5064   3.0415   3.8623   4.7106

          k = 0.1393 0.4824 0.0000 (  4890 PWs)   bands (ev):

   -19.8575 -15.4176 -11.7097  -7.3759  -1.1517   4.5911   5.2168   5.4156

          k = 0.1393 0.5628 0.0000 (  4881 PWs)   bands (ev):

   -18.6545 -16.9008 -11.9334  -6.3805  -2.4142   5.0864   6.4323   7.1232

          k = 0.2089 0.3618 0.0000 (  4919 PWs)   bands (ev):

   -21.0593 -13.2050 -11.7702  -8.6428   0.7843   2.9003   3.7038   4.5675

          k = 0.2089 0.4422 0.0000 (  4903 PWs)   bands (ev):

   -20.0554 -14.4975 -12.5950  -7.5335  -0.7167   4.3206   5.0874   6.0341

          k = 0.2089 0.5226 0.0000 (  4898 PWs)   bands (ev):

   -18.8992 -15.9389 -13.0217  -6.3796  -2.1292   5.9908   6.5350   6.8781

          k = 0.2089 0.6031 0.0000 (  4892 PWs)   bands (ev):

   -17.9479 -17.0010 -13.1549  -5.7191  -2.8807   6.7984   7.1884   7.7667

          k = 0.2785 0.4824 0.0000 (  4897 PWs)   bands (ev):

   -18.9890 -15.2759 -13.7361  -6.3929  -1.9811   5.8552   6.2990   7.6405

          k = 0.2785 0.5628 0.0000 (  4899 PWs)   bands (ev):

   -17.8373 -16.3354 -14.2811  -5.2958  -3.1340   6.6566   7.5679   8.5387

          k = 0.3482 0.6031 0.0000 (  4878 PWs)   bands (ev):

   -16.8719 -16.8719 -14.9182  -4.1946  -4.1946   6.4571   8.7938   8.7938

     the Fermi energy is    -4.1946 ev

!    total energy              =     -22.79652331 Ry
     estimated scf accuracy    <          2.2E-11 Ry
     smearing contrib. (-TS)   =      -0.00005015 Ry
     internal energy E=F+TS    =     -22.79647316 Ry

     The total energy is F=E-TS. E is the sum of the following terms:
     one-electron contribution =    -391.20978199 Ry
     hartree contribution      =     196.23514522 Ry
     xc contribution           =      -7.03442233 Ry
     ewald contribution        =     179.21258593 Ry

     convergence has been achieved in   1 iterations

     Forces acting on atoms (cartesian axes, Ry/au):

     atom    1 type  1   force =     0.00000000    0.00000000    0.00000000
     atom    2 type  1   force =     0.00000000    0.00000000    0.00000000

     Total force =     0.000000     Total SCF correction =     0.000000


     Computing stress (Cartesian axis) and pressure

          total   stress  (Ry/bohr**3)                   (kbar)     P=       -4.57
  -0.00000001  -0.00000000  -0.00000000           -0.00       -0.00       -0.00
  -0.00000000  -0.00000001  -0.00000000           -0.00       -0.00       -0.00
  -0.00000000  -0.00000000  -0.00009321           -0.00       -0.00      -13.71

     Energy error            =      3.1E-11
     Gradient error          =      0.0E+00
     Cell gradient error     =      6.2E-09


     bfgs converged in   8 scf cycles and   6 bfgs steps
     (criteria: energy <  1.0E-04 Ry, force <  1.0E-08Ry/Bohr, cell <  1.0E-03kbar)

     End of BFGS Geometry Optimization

     Final enthalpy =     -22.7965233148 Ry

     File ./work/LiC484.bfgs deleted, as requested
Begin final coordinates
     new unit-cell volume =    753.08514 a.u.^3 (   111.59570 Ang^3 )
     density =      0.35744 g/cm^3

CELL_PARAMETERS (alat=  4.84000000)
   0.957378899  -0.000000000   0.000000000
  -0.478689450   0.829114448   0.000000000
   0.000000000   0.000000000   8.367768595

ATOMIC_POSITIONS (crystal)
C             0.3333333333        0.6666666667        0.5000000000
C             0.6666666667        0.3333333333        0.5000000000
End final coordinates



     Writing output data file ./work/LiC484.save/

     Final scf calculation at the relaxed structure.
     The G-vectors are recalculated for the final unit cell
     Results may differ from those at the preceding step.
 
     Parallelization info
     --------------------
     sticks:   dense  smooth     PW     G-vecs:    dense   smooth      PW
     Min           9       9      2                 1115     1115     170
     Max          10      10      3                 1146     1146     215
     Sum         301     301     91                36039    36039    6397
 


     bravais-lattice index     =            4
     lattice parameter (alat)  =       4.8400  a.u.
     unit-cell volume          =     753.0851 (a.u.)^3
     number of atoms/cell      =            2
     number of atomic types    =            1
     number of electrons       =         8.00
     number of Kohn-Sham states=            8
     kinetic-energy cutoff     =      50.0000  Ry
     charge density cutoff     =     200.0000  Ry
     scf convergence threshold =      1.0E-10
     mixing beta               =       0.7000
     number of iterations used =            8  plain     mixing
     press convergence thresh. =      1.0E-03
     Exchange-correlation= PBE
                           (   1   4   3   4   0   0   0)

     celldm(1)=   4.840000  celldm(2)=   0.000000  celldm(3)=   8.367769
     celldm(4)=   0.000000  celldm(5)=   0.000000  celldm(6)=   0.000000

     crystal axes: (cart. coord. in units of alat)
               a(1) = (   0.957379  -0.000000   0.000000 )  
               a(2) = (  -0.478689   0.829114   0.000000 )  
               a(3) = (   0.000000   0.000000   8.367769 )  

     reciprocal axes: (cart. coord. in units 2 pi/alat)
               b(1) = (  1.044519  0.603053  0.000000 )  
               b(2) = (  0.000000  1.206106  0.000000 )  
               b(3) = (  0.000000  0.000000  0.119506 )  


     PseudoPot. # 1 for C  read from file:
     /home/yhkim/qe-6.7/pseudo/ONCV1/1.2/C_ONCV_PBE-1.2.upf
     MD5 check sum: 1a5f83a7b1f58d24996abe00ed223ac6
     Pseudo is Norm-conserving, Zval =  4.0
     Generated using ONCVPSP code by D. R. Hamann
     Using radial grid of  602 points,  4 beta functions with: 
                l(1) =   0
                l(2) =   0
                l(3) =   1
                l(4) =   1

     atomic species   valence    mass     pseudopotential
        C              4.00    12.01070     C ( 1.00)

     24 Sym. Ops., with inversion, found



   Cartesian axes

     site n.     atom                  positions (alat units)
         1           C   tau(   1) = (  -0.0000000   0.5527430   4.1838843  )
         2           C   tau(   2) = (   0.4786894   0.2763715   4.1838843  )

     number of k points=    27  Methfessel-Paxton smearing, width (Ry)=  0.0100
                       cart. coord. in units 2pi/alat
        k(    1) = (   0.0000000   0.0000000   0.0000000), wk =   0.0088889
        k(    2) = (   0.0000000   0.0804071   0.0000000), wk =   0.0533333
        k(    3) = (   0.0000000   0.1608141   0.0000000), wk =   0.0533333
        k(    4) = (   0.0000000   0.2412212   0.0000000), wk =   0.0533333
        k(    5) = (   0.0000000   0.3216283   0.0000000), wk =   0.0533333
        k(    6) = (   0.0000000   0.4020354   0.0000000), wk =   0.0533333
        k(    7) = (   0.0000000   0.4824424   0.0000000), wk =   0.0533333
        k(    8) = (   0.0000000   0.5628495   0.0000000), wk =   0.0533333
        k(    9) = (   0.0696346   0.1206106   0.0000000), wk =   0.0533333
        k(   10) = (   0.0696346   0.2010177   0.0000000), wk =   0.1066667
        k(   11) = (   0.0696346   0.2814248   0.0000000), wk =   0.1066667
        k(   12) = (   0.0696346   0.3618318   0.0000000), wk =   0.1066667
        k(   13) = (   0.0696346   0.4422389   0.0000000), wk =   0.1066667
        k(   14) = (   0.0696346   0.5226460   0.0000000), wk =   0.1066667
        k(   15) = (   0.0696346   0.6030531   0.0000000), wk =   0.0533333
        k(   16) = (   0.1392691   0.2412212   0.0000000), wk =   0.0533333
        k(   17) = (   0.1392691   0.3216283   0.0000000), wk =   0.1066667
        k(   18) = (   0.1392691   0.4020354   0.0000000), wk =   0.1066667
        k(   19) = (   0.1392691   0.4824424   0.0000000), wk =   0.1066667
        k(   20) = (   0.1392691   0.5628495   0.0000000), wk =   0.1066667
        k(   21) = (   0.2089037   0.3618318   0.0000000), wk =   0.0533333
        k(   22) = (   0.2089037   0.4422389   0.0000000), wk =   0.1066667
        k(   23) = (   0.2089037   0.5226460   0.0000000), wk =   0.1066667
        k(   24) = (   0.2089037   0.6030531   0.0000000), wk =   0.0533333
        k(   25) = (   0.2785383   0.4824424   0.0000000), wk =   0.0533333
        k(   26) = (   0.2785383   0.5628495   0.0000000), wk =   0.1066667
        k(   27) = (   0.3481728   0.6030531   0.0000000), wk =   0.0177778

     Dense  grid:    36039 G-vectors     FFT dimensions: (  24,  24, 192)

     Estimated max dynamical RAM per process >       1.96 MB

     Estimated total dynamical RAM >      62.59 MB
 ----2D----2D----2D----2D----2D----2D----2D----2D----2D----2D----2D----2D
  The code is running with the 2D cutoff
  Please refer to:
  Sohier, T., Calandra, M., & Mauri, F. (2017), 
  Density functional perturbation theory for gated two-dimensional heterostructu
 res:
  Theoretical developments and application to flexural phonons in graphene.
  Physical Review B, 96(7), 75448. https://doi.org/10.1103/PhysRevB.96.075448
 ----2D----2D----2D----2D----2D----2D----2D----2D----2D----2D----2D----2D

     Initial potential from superposition of free atoms

     starting charge    7.98607, renormalised to    8.00000

     negative rho (up, down):  1.158E-04 0.000E+00
     Starting wfcs are random

     total cpu time spent up to now is       12.1 secs

     Self-consistent Calculation

     iteration #  1     ecut=    50.00 Ry     beta= 0.70
     Davidson diagonalization with overlap
     c_bands:  2 eigenvalues not converged
     c_bands:  3 eigenvalues not converged
     c_bands:  1 eigenvalues not converged
     c_bands:  4 eigenvalues not converged
     c_bands:  4 eigenvalues not converged
     c_bands:  4 eigenvalues not converged
     c_bands:  2 eigenvalues not converged
     c_bands:  2 eigenvalues not converged
     c_bands:  5 eigenvalues not converged
     c_bands:  5 eigenvalues not converged
     c_bands:  5 eigenvalues not converged
     c_bands:  4 eigenvalues not converged
     c_bands:  3 eigenvalues not converged
     c_bands:  3 eigenvalues not converged
     c_bands:  2 eigenvalues not converged
     c_bands:  4 eigenvalues not converged
     c_bands:  4 eigenvalues not converged
     c_bands:  3 eigenvalues not converged
     c_bands:  2 eigenvalues not converged
     c_bands:  3 eigenvalues not converged
     c_bands:  4 eigenvalues not converged
     c_bands:  3 eigenvalues not converged
     c_bands:  3 eigenvalues not converged
     c_bands:  3 eigenvalues not converged
     c_bands:  3 eigenvalues not converged
     c_bands:  3 eigenvalues not converged
     c_bands:  3 eigenvalues not converged
     ethr =  1.00E-06,  avg # of iterations = 22.2

     negative rho (up, down):  2.305E-05 0.000E+00

     total cpu time spent up to now is       12.8 secs

     total energy              =     -22.76009360 Ry
     estimated scf accuracy    <       0.19967694 Ry

     iteration #  2     ecut=    50.00 Ry     beta= 0.70
     Davidson diagonalization with overlap
     ethr =  2.50E-03,  avg # of iterations =  2.5

     negative rho (up, down):  2.831E-06 0.000E+00

     total cpu time spent up to now is       12.9 secs

     total energy              =     -22.79018824 Ry
     estimated scf accuracy    <       0.00233878 Ry

     iteration #  3     ecut=    50.00 Ry     beta= 0.70
     Davidson diagonalization with overlap
     ethr =  2.92E-05,  avg # of iterations =  8.8

     total cpu time spent up to now is       13.1 secs

     total energy              =     -22.79057993 Ry
     estimated scf accuracy    <       0.00017452 Ry

     iteration #  4     ecut=    50.00 Ry     beta= 0.70
     Davidson diagonalization with overlap
     ethr =  2.18E-06,  avg # of iterations =  5.7

     total cpu time spent up to now is       13.3 secs

     total energy              =     -22.79059393 Ry
     estimated scf accuracy    <       0.00000119 Ry

     iteration #  5     ecut=    50.00 Ry     beta= 0.70
     Davidson diagonalization with overlap
     ethr =  1.48E-08,  avg # of iterations =  3.7

     total cpu time spent up to now is       13.4 secs

     total energy              =     -22.79059543 Ry
     estimated scf accuracy    <       0.00000004 Ry

     iteration #  6     ecut=    50.00 Ry     beta= 0.70
     Davidson diagonalization with overlap
     ethr =  4.76E-10,  avg # of iterations =  2.3

     total cpu time spent up to now is       13.5 secs

     total energy              =     -22.79059544 Ry
     estimated scf accuracy    <          9.5E-10 Ry

     iteration #  7     ecut=    50.00 Ry     beta= 0.70
     Davidson diagonalization with overlap
     ethr =  1.18E-11,  avg # of iterations =  3.1

     total cpu time spent up to now is       13.7 secs

     End of self-consistent calculation

          k = 0.0000 0.0000 0.0000 (  4459 PWs)   bands (ev):

   -23.8762 -11.9379  -7.2715  -7.2715  -0.9833  -0.2037   0.5837   0.9388

          k = 0.0000 0.0804 0.0000 (  4461 PWs)   bands (ev):

   -23.7701 -11.8098  -7.6980  -7.4987  -0.8391  -0.0574   0.7308   1.0854

          k = 0.0000 0.1608 0.0000 (  4489 PWs)   bands (ev):

   -23.4533 -11.4299  -8.8308  -8.0701  -0.4068   0.3808   1.1723   1.5248

          k = 0.0000 0.2412 0.0000 (  4467 PWs)   bands (ev):

   -22.9275 -10.8047 -10.3851  -8.7836   0.3133   1.1087   1.9080   2.2547

          k = 0.0000 0.3216 0.0000 (  4509 PWs)   bands (ev):

   -22.1973 -12.1338  -9.9495  -9.4823   1.3190   2.0918   2.7246   2.9359

          k = 0.0000 0.4020 0.0000 (  4519 PWs)   bands (ev):

   -21.2698 -13.9151 -10.0606  -8.8964   0.7903   2.6017   3.4581   3.6690

          k = 0.0000 0.4824 0.0000 (  4515 PWs)   bands (ev):

   -20.1600 -15.6298 -10.4703  -7.7335  -0.9895   3.4410   4.2078   5.0420

          k = 0.0000 0.5628 0.0000 (  4521 PWs)   bands (ev):

   -18.9410 -17.1608 -10.6808  -6.7604  -2.2926   3.3493   6.0265   6.8927

          k = 0.0696 0.1206 0.0000 (  4495 PWs)   bands (ev):

   -23.5588 -11.5559  -8.4253  -7.9515  -0.5508   0.2349   1.0252   1.3784

          k = 0.0696 0.2010 0.0000 (  4483 PWs)   bands (ev):

   -23.1375 -11.0531  -9.6778  -8.6864   0.0257   0.8183   1.6140   1.9636

          k = 0.0696 0.2814 0.0000 (  4483 PWs)   bands (ev):

   -22.5095 -11.2713 -10.3113  -9.4514   0.8893   1.6876   2.4967   2.8319

          k = 0.0696 0.3618 0.0000 (  4498 PWs)   bands (ev):

   -21.6805 -13.0051 -10.1203  -9.3529   1.6463   2.0366   2.8782   3.6687

          k = 0.0696 0.4422 0.0000 (  4508 PWs)   bands (ev):

   -20.6608 -14.7393 -10.6288  -8.2294  -0.1720   3.4490   4.0447   4.3128

          k = 0.0696 0.5226 0.0000 (  4515 PWs)   bands (ev):

   -19.4788 -16.3728 -10.9452  -7.0947  -1.7673   3.8568   5.1868   6.0247

          k = 0.0696 0.6031 0.0000 (  4514 PWs)   bands (ev):

   -18.4963 -17.5090 -11.0525  -6.4947  -2.5265   3.8078   7.0549   7.2109

          k = 0.1393 0.2412 0.0000 (  4485 PWs)   bands (ev):

   -22.6139 -10.7841 -10.4328  -9.6616   0.7463   1.5456   2.3502   2.6936

          k = 0.1393 0.3216 0.0000 (  4483 PWs)   bands (ev):

   -21.8872 -12.1878 -10.5759  -9.5846   1.7525   2.2066   2.5707   3.3803

          k = 0.1393 0.4020 0.0000 (  4501 PWs)   bands (ev):

   -20.9654 -13.7933 -11.2561  -8.5395   0.5061   3.0399   3.8583   4.7006

          k = 0.1393 0.4824 0.0000 (  4507 PWs)   bands (ev):

   -19.8655 -15.4210 -11.7041  -7.3776  -1.1516   4.5902   5.2170   5.4122

          k = 0.1393 0.5628 0.0000 (  4505 PWs)   bands (ev):

   -18.6620 -16.9059 -11.9290  -6.3819  -2.4130   5.0857   6.4313   7.1215

          k = 0.2089 0.3618 0.0000 (  4485 PWs)   bands (ev):

   -21.0677 -13.2040 -11.7630  -8.6450   0.7873   2.8986   3.6998   4.5571

          k = 0.2089 0.4422 0.0000 (  4491 PWs)   bands (ev):

   -20.0632 -14.4993 -12.5905  -7.5345  -0.7148   4.3192   5.0842   6.0239

          k = 0.2089 0.5226 0.0000 (  4499 PWs)   bands (ev):

   -18.9067 -15.9427 -13.0179  -6.3807  -2.1283   5.9902   6.5332   6.8849

          k = 0.2089 0.6031 0.0000 (  4494 PWs)   bands (ev):

   -17.9551 -17.0054 -13.1512  -5.7199  -2.8799   6.8050   7.1873   7.7688

          k = 0.2785 0.4824 0.0000 (  4477 PWs)   bands (ev):

   -18.9966 -15.2787 -13.7329  -6.3929  -1.9798   5.8545   6.2974   7.5884

          k = 0.2785 0.5628 0.0000 (  4488 PWs)   bands (ev):

   -17.8436 -16.3397 -14.2789  -5.2958  -3.1345   6.6546   7.5692   8.5518

          k = 0.3482 0.6031 0.0000 (  4473 PWs)   bands (ev):

   -16.8771 -16.8771 -14.9164  -4.1943  -4.1943   6.4547   8.8030   8.8030

     the Fermi energy is    -4.1943 ev

!    total energy              =     -22.79059544 Ry
     estimated scf accuracy    <          1.4E-11 Ry
     smearing contrib. (-TS)   =      -0.00005015 Ry
     internal energy E=F+TS    =     -22.79054529 Ry

     The total energy is F=E-TS. E is the sum of the following terms:
     one-electron contribution =    -391.19780400 Ry
     hartree contribution      =     196.22874563 Ry
     xc contribution           =      -7.03407283 Ry
     ewald contribution        =     179.21258591 Ry

     convergence has been achieved in   7 iterations

     Forces acting on atoms (cartesian axes, Ry/au):

     atom    1 type  1   force =    -0.00000000   -0.00000000    0.00000000
     atom    2 type  1   force =     0.00000000    0.00000000    0.00000000

     Total force =     0.000000     Total SCF correction =     0.000000


     Computing stress (Cartesian axis) and pressure

          total   stress  (Ry/bohr**3)                   (kbar)     P=       -8.59
  -0.00003288  -0.00000000   0.00000000           -4.84       -0.00        0.00
  -0.00000000  -0.00003288   0.00000000           -0.00       -4.84        0.00
   0.00000000   0.00000000  -0.00010932            0.00        0.00      -16.08


     Writing output data file ./work/LiC484.save/
 
     init_run     :      0.13s CPU      0.15s WALL (       2 calls)
     electrons    :     12.03s CPU     13.06s WALL (       9 calls)
     update_pot   :      0.09s CPU      0.09s WALL (       7 calls)
     forces       :      0.07s CPU      0.08s WALL (       9 calls)
     stress       :      0.22s CPU      0.22s WALL (       9 calls)

     Called by init_run:
     wfcinit      :      0.10s CPU      0.11s WALL (       2 calls)
     potinit      :      0.01s CPU      0.01s WALL (       2 calls)
     hinit0       :      0.01s CPU      0.01s WALL (       2 calls)

     Called by electrons:
     c_bands      :     10.43s CPU     11.19s WALL (      75 calls)
     sum_band     :      1.42s CPU      1.51s WALL (      75 calls)
     v_of_rho     :      0.14s CPU      0.16s WALL (      81 calls)
     mix_rho      :      0.02s CPU      0.03s WALL (      75 calls)

     Called by c_bands:
     init_us_2    :      0.09s CPU      0.10s WALL (    4590 calls)
     cegterg      :     10.19s CPU     10.91s WALL (    2028 calls)

     Called by *egterg:
     cdiaghg      :      0.88s CPU      0.94s WALL (    9972 calls)
     h_psi        :      8.66s CPU      9.27s WALL (   10299 calls)
     g_psi        :      0.02s CPU      0.03s WALL (    8217 calls)

     Called by h_psi:
     h_psi:calbec :      0.35s CPU      0.37s WALL (   10299 calls)
     vloc_psi     :      8.14s CPU      8.72s WALL (   10299 calls)
     add_vuspsi   :      0.08s CPU      0.09s WALL (   10299 calls)

     General routines
     calbec       :      0.39s CPU      0.42s WALL (   11514 calls)
     fft          :      0.13s CPU      0.14s WALL (     883 calls)
     ffts         :      0.01s CPU      0.01s WALL (      75 calls)
     fftw         :      8.95s CPU      9.58s WALL (  123834 calls)
 
     Parallel routines
     fft_scatt_xy :      0.57s CPU      0.61s WALL (  124792 calls)
     fft_scatt_yz :      5.31s CPU      5.68s WALL (  124792 calls)
 
     PWSCF        :     12.63s CPU     13.95s WALL

 
   This run was terminated on:  14:17:50  19Jan2024            

=------------------------------------------------------------------------------=
   JOB DONE.
=------------------------------------------------------------------------------=
